TITLE = "026.00"

# Column     1            2             3            4             5            6            7            8         9        10       11        12        13
VARIABLES = "ITERATION"  "GRID_LEVEL"  "GRID_SIZE"  "CONTINUITY"  "MOMENTUMX"  "MOMENTUMY"  "MOMENTUMZ"  "ENERGY"  "TURB1"  "TURB2"  "CL_TOT"  "CD_TOT"  "CM_TOT"

#---------------------------------------------------
#   PARTICIPANT, GRID, AND SOLVER INFORMATION
#---------------------------------------------------
DATASETAUXDATA ParticipantID   = "026"
DATASETAUXDATA SubmissionDate  = "October 23, 2024"
DATASETAUXDATA Name            = "Greg McGowan, Ian Eldridge-Allegra, Mike Tree"
DATASETAUXDATA Email           = "ian.eldridge-allegra@corvidtec.com"
DATASETAUXDATA Institution     = "Corvid Technologies"
DATASETAUXDATA SolverName      = "Raven 5.0"
DATASETAUXDATA BasicAlgorithm  = "RANS"
DATASETAUXDATA TurbulenceModel = "SA"
DATASETAUXDATA GridId          = "Unstructured"
DATASETAUXDATA Discretization  = "Finite Volume"
DATASETAUXDATA Order           = "2"
DATASETAUXDATA DistanceCalc    = "KD-Tree"
DATASETAUXDATA Notes           = ""
    

ZONE T="026.00 - Alpha 1.36 degree - Grid Level 3"
AUXDATA Tstatic         = "271.1056 K"
AUXDATA Deltat          = "-999"
AUXDATA GridFileName    = "ONERA-OAT15A_230mmChord_780mmSpan_upZ_2024_09_05_Unstructured_Level-3.pw"
AUXDATA Misc            = ""
1 3 150333 89.025075 508.69394 1.7306697e-12 100.85918 248.56979 15037.063 -999 -0.00353226570159 0.141342883039 0.00293406070588
2 3 150333 60.631 99.349084 1.5467219e-13 18.410592 167.80065 219.62975 -999 -0.00301347157012 0.121173002396 0.00249957969855
3 3 150333 40.180129 61.201127 6.5993e-14 9.1657881 110.76529 126.29528 -999 -0.00258417111209 0.10451047438 0.00214225701917
4 3 150333 25.094293 40.046672 7.3699447e-14 5.649126 69.837899 85.60908 -999 -0.00222985286777 0.0910061820797 0.00184773588867
5 3 150333 14.852024 25.576673 7.4291073e-14 4.0380484 42.325025 61.045024 -999 -0.00192971422308 0.0800275560754 0.00159789650988
6 3 150333 9.0150222 14.195484 3.3817875e-14 3.0154 26.085531 48.072911 -999 -0.00166425819247 0.0709839366611 0.00137662228544
7 3 150333 6.678221 10.185187 2.05802e-14 2.46469 18.972061 42.688352 -999 -0.00142229433093 0.0635762269628 0.00117453141899
8 3 150333 6.2485203 8.9027365 1.5208755e-14 2.0422085 17.551336 41.041493 -999 -0.00118898434946 0.0574657370128 0.000979556963251
9 3 150333 6.5988766 8.4172935 1.4915861e-14 1.847938 18.569721 40.897235 -999 -0.000948282697983 0.0523679827594 0.000778132543619
10 3 150333 7.4169617 8.9635545 2.029268e-14 1.8711608 20.7975 41.086281 -999 -0.000685166716883 0.0481132656175 0.000557373490398
11 3 150333 8.5406395 9.9298552 2.5014174e-14 2.0206779 23.843683 41.554581 -999 -0.000379751106848 0.0445564916148 0.000299564560025
12 3 150333 9.9221047 11.357508 2.9539939e-14 2.3126418 27.62178 43.063325 -999 -8.82151574152e-06 0.0416174060147 -1.70025054047e-05
13 3 150333 11.64445 13.25318 3.2448783e-14 2.7494916 32.333309 45.844994 -999 0.000456483612732 0.0392673237431 -0.000419213795093
14 3 150333 13.86493 15.701471 3.2553466e-14 3.3471414 38.345281 49.869274 -999 0.00105374613082 0.0375244345687 -0.000942255772173
15 3 150333 16.860429 18.822019 3.2139719e-14 4.1281129 46.293892 56.30281 -999 0.00183037090001 0.03644760711 -0.00162925848016
16 3 150333 21.135152 22.758734 4.0655051e-14 5.1271459 57.365945 66.461967 -999 0.00283912461437 0.0361237263511 -0.00252803876584
17 3 150333 27.919859 27.669759 7.425034e-14 6.3851389 74.429331 82.98538 -999 0.0041404085381 0.0366591865381 -0.00368999324788
18 3 150333 38.564026 33.60976 1.5222905e-13 7.9486993 100.9197 107.80513 -999 0.00581508646489 0.0381678508433 -0.00518041524311
19 3 150333 54.1504 40.539629 2.9885817e-13 9.7863636 139.93117 142.88786 -999 0.00792232603587 0.0407560178977 -0.00704651061504
20 3 150333 75.183714 48.31874 5.3634001e-13 11.874078 193.32676 189.32079 -999 0.0105232549463 0.044514156833 -0.00933563202525
21 3 150333 101.72423 56.632184 8.827532e-13 14.097627 261.8626 247.48453 -999 0.0136665248135 0.049511683185 -0.0120828405839
22 3 150333 133.55495 65.011642 1.351089e-12 16.277436 345.52499 318.58051 -999 0.0173851376992 0.0557905569582 -0.0153081936511
23 3 150333 169.99473 72.803345 1.9478135e-12 18.170477 443.09128 404.92875 -999 0.0216928682193 0.0633603005042 -0.0190139208684
24 3 150333 212.46995 79.90465 2.679811e-12 19.482652 557.85923 3060.757 -999 0.0265786542886 0.0721823649307 -0.0231814148632
25 3 150333 260.68606 97.133639 3.5204402e-12 19.895674 690.16364 25843.524 -999 0.0320054310535 0.0821794470546 -0.0277709965062
26 3 150333 316.19067 124.65299 4.5690473e-12 19.136661 840.75881 38637.411 -999 0.0379091218375 0.0932069309571 -0.0327231948321
27 3 150333 381.08192 173.25455 5.9948587e-12 17.217591 1015.4643 70048.502 -999 0.0442017412366 0.105063056376 -0.0379630087833
28 3 150333 442.67979 232.7094 9.2030592e-12 14.882819 1179.3454 80069.693 -999 0.0507755913578 0.117636807636 -0.0434071213473
29 3 150333 493.36775 270.53486 1.3876328e-11 14.438939 1308.1797 51351.019 -999 0.0575121111254 0.130734987518 -0.0489675986084
30 3 150333 532.75435 285.66074 1.48441e-11 18.426407 1401.7678 32589.56 -999 0.0642833164984 0.144084143085 -0.054551831886
31 3 150333 563.30205 288.05665 1.3133413e-11 25.885362 1465.0206 21064.959 -999 0.0709577163344 0.15737636101 -0.0600660537025
32 3 150333 588.8901 279.09513 1.2563907e-11 34.446884 1507.8958 13539.601 -999 0.0774085637401 0.170268539973 -0.0654193561314
33 3 150333 602.47611 259.77096 1.3493001e-11 42.017047 1505.6191 8809.5121 -999 0.0835252260279 0.182460863448 -0.0705313314077
34 3 150333 611.35793 229.38588 1.6035021e-11 47.255075 1485.3801 5850.6309 -999 0.0891973637459 0.19360868541 -0.0753277725078
35 3 150333 615.02648 188.12003 1.9759688e-11 49.158741 1455.8402 4106.1387 -999 0.0944200430225 0.203314458344 -0.079760556958
36 3 150333 634.067 158.92519 2.371368e-11 47.462889 1624.2901 206863.62 -999 0.0990751191764 0.210744097244 -0.0837819602929
37 3 150333 561.58953 98.332178 2.6862205e-11 43.07057 1303.017 88917.649 -999 0.103187122316 0.217544435552 -0.0873251076578
38 3 150333 519.02193 73.212616 2.6405089e-11 39.039143 1313.3781 328662.56 -999 0.106698470236 0.222324271908 -0.0904154583024
39 3 150333 398.20516 80.10096 2.6359843e-11 35.549696 915.83019 156168.23 -999 0.109708254731 0.226409295152 -0.0930769957158
40 3 150333 307.32509 118.50102 2.2009205e-11 37.05696 798.77117 351918.68 -999 0.112216660729 0.228885836005 -0.0953263143704
41 3 150333 216.31822 97.336642 2.5987171e-11 35.334139 518.33256 204390.66 -999 0.114253602012 0.230522696744 -0.0971852644851
42 3 150333 164.16482 155.12137 2.1671076e-11 50.12962 413.0163 369620.45 -999 0.115880065773 0.231184043998 -0.0987055841166
43 3 150333 125.1274 92.988647 3.301633e-11 54.753683 291.89467 251972.66 -999 0.117167682595 0.231044998507 -0.099950079264
44 3 150333 116.56572 146.65221 3.7855141e-11 58.802594 245.79742 408417.06 -999 0.118178803494 0.230591587812 -0.10097528128
45 3 150333 92.483646 77.288137 4.306253e-11 56.75213 204.47289 288475.8 -999 0.118991124527 0.229455216576 -0.101826431442
46 3 150333 125.87881 114.95386 4.5370604e-11 60.187934 272.12221 411828.97 -999 0.119628772171 0.228423910288 -0.102555006904
47 3 150333 99.495498 56.757677 4.9686368e-11 56.721109 223.82224 286091.8 -999 0.120176860469 0.226821092527 -0.103202151317
48 3 150333 141.29835 81.199841 4.6076747e-11 54.539616 323.66264 398870.72 -999 0.12062526439 0.225522422342 -0.10380043567
49 3 150333 112.36355 39.137911 5.0168264e-11 47.521719 255.3332 278702.4 -999 0.121048774126 0.223741779483 -0.104376158444
50 3 150333 149.15144 57.863567 4.2100378e-11 41.873022 350.54811 380811.92 -999 0.121415845338 0.222331939972 -0.104941691876
51 3 150333 115.09474 28.494949 4.5529799e-11 34.332168 259.79971 271621.88 -999 0.121786177363 0.220513257938 -0.105518822449
52 3 150333 142.27599 44.62296 3.5597314e-11 31.696651 340.27509 366864.21 -999 0.122122995946 0.219108514267 -0.106114831177
53 3 150333 98.674094 23.239013 3.791675e-11 26.971073 224.84439 263135.96 -999 0.122468757101 0.217329128257 -0.106732505602
54 3 150333 126.8021 39.011399 2.7945561e-11 24.064601 317.04816 355191.82 -999 0.122768154812 0.215975948894 -0.107364237091
55 3 150333 82.143994 21.008996 2.9914409e-11 19.315474 193.19241 255026.07 -999 0.123047724897 0.214259038064 -0.107997442119
56 3 150333 117.27846 38.331681 2.1148958e-11 19.420213 306.85309 342923.45 -999 0.123251306146 0.212963228688 -0.108621304962
57 3 150333 69.179675 20.750867 2.2910614e-11 16.00412 172.67844 253313.62 -999 0.123412066117 0.211295127775 -0.109230760034
58 3 150333 114.58029 40.221547 1.5763196e-11 14.98898 313.15405 332619.88 -999 0.123472461198 0.210057899848 -0.109814166678
59 3 150333 67.141516 22.192517 1.7410543e-11 11.166249 174.53227 250866.21 -999 0.123461355507 0.208428060431 -0.110360907814
60 3 150333 115.73701 42.131515 1.185331e-11 13.674619 324.86813 324559.58 -999 0.123323618987 0.207223946665 -0.11085855368
61 3 150333 66.186788 24.314056 1.3422929e-11 12.189131 178.91651 250195.03 -999 0.123085213667 0.205605341406 -0.111297525767
62 3 150333 115.75397 42.750459 9.0540871e-12 14.65916 329.73183 314457.49 -999 0.122696014155 0.204407480058 -0.111666922358
63 3 150333 70.375246 27.277412 1.0886326e-11 13.356325 195.37591 248941.03 -999 0.122180127431 0.202796889734 -0.111957640769
64 3 150333 116.00532 43.531534 7.8709671e-12 16.968589 333.92233 305012.26 -999 0.121507668519 0.201562954845 -0.112164456677
65 3 150333 75.266182 30.030079 9.5110704e-12 16.447514 211.87317 245451.31 -999 0.120700359959 0.199925721478 -0.112281311154
66 3 150333 121.21385 43.744255 7.2185202e-12 19.211094 351.69001 294418.77 -999 0.119728492028 0.198655764795 -0.112301359203
67 3 150333 83.893434 32.96316 9.0472718e-12 18.147156 238.08492 236233.25 -999 0.118600485891 0.196984250792 -0.112221937962
68 3 150333 122.473 40.75305 6.9523515e-12 20.743104 354.68377 282736.57 -999 0.117311693554 0.195630638361 -0.112041270015
69 3 150333 88.556329 33.813681 8.826269e-12 19.542119 253.69059 223848.21 -999 0.115882751464 0.193881129933 -0.111762471446
70 3 150333 117.76546 34.593422 7.0116401e-12 21.06473 334.7273 274519.35 -999 0.114310815987 0.192388552693 -0.111392876305
71 3 150333 95.458286 32.841306 8.5466774e-12 18.418572 272.29414 211139.31 -999 0.112624951368 0.190578016649 -0.110931833607
72 3 150333 119.6468 40.439705 7.6527822e-12 20.182561 345.11392 261924.13 -999 0.110729863751 0.188985068526 -0.110323548141
73 3 150333 87.120052 29.192535 7.2031337e-12 16.691031 246.57024 229887.14 -999 0.108487518893 0.186952441365 -0.109411230707
74 3 150333 125.0716 43.435838 7.9339994e-12 20.202621 368.36546 312807.94 -999 0.106007349066 0.185231093287 -0.108335343732
75 3 150333 91.961172 30.77978 8.2877856e-12 18.557421 263.87477 242007.33 -999 0.10345071634 0.183139517085 -0.107179263322
76 3 150333 130.06425 46.654006 8.2697663e-12 23.750672 384.42585 313243.78 -999 0.100830172266 0.181330034027 -0.105986042147
77 3 150333 93.40094 32.825492 9.2446219e-12 23.339404 270.28072 204637.45 -999 0.0982588824706 0.179049282435 -0.104805926133
78 3 150333 136.45634 56.837076 8.2036523e-12 28.240788 408.85672 324510.59 -999 0.0962144733735 0.177073677258 -0.103940223804
79 3 150333 100.1467 36.25851 1.0017802e-11 31.731467 291.53292 220353.33 -999 0.0945678504273 0.174618857765 -0.103280946203
80 3 150333 152.55473 63.510949 7.6313484e-12 36.801131 458.57898 341826.11 -999 0.093033961435 0.172638258753 -0.102749998428
81 3 150333 113.6879 39.715848 1.2256917e-11 40.900849 330.62391 230294.32 -999 0.0917836868445 0.170098099094 -0.102330767304
82 3 150333 159.54785 62.290678 9.8956666e-12 45.61541 475.86957 297923.74 -999 0.0906655872163 0.168004083018 -0.102028567686
83 3 150333 128.67395 41.060693 1.437928e-11 48.288661 368.64665 280681.56 -999 0.0897339378815 0.165522574036 -0.101851735348
84 3 150333 169.75529 57.211655 1.1814899e-11 51.874303 500.51108 296175.98 -999 0.0888443237795 0.16350125861 -0.101771823845
85 3 150333 134.08562 38.025099 1.3713051e-11 51.768345 373.89808 257736.55 -999 0.0880974935343 0.160965236243 -0.101727942973
86 3 150333 171.34501 50.822901 1.1389995e-11 51.425322 493.23739 280594.49 -999 0.0871322769358 0.158919307883 -0.101599419085
87 3 150333 135.34676 36.160796 9.2098443e-12 48.248029 366.01924 249642.83 -999 0.0858663836927 0.15633162439 -0.101178260658
88 3 150333 166.45148 46.556939 1.2413901e-11 45.105989 469.26142 251412.92 -999 0.0839089807864 0.154202899871 -0.100324209422
89 3 150333 141.90515 37.896073 1.1253358e-11 42.77088 387.51579 286074.11 -999 0.0816667524005 0.151793498839 -0.099164732517
90 3 150333 165.02863 45.100526 1.376055e-11 42.695844 468.58694 341624.58 -999 0.0789892863912 0.149814921321 -0.0978028013802
91 3 150333 134.50823 35.904889 1.1757283e-11 43.651214 370.52741 316986.73 -999 0.0763031429325 0.147403191184 -0.0963632105572
92 3 150333 154.18722 39.040217 1.2092502e-11 45.10488 438.41683 320017.07 -999 0.0736475198666 0.145320645189 -0.0950368795156
93 3 150333 131.93405 35.220789 9.3664635e-12 47.433365 366.31765 301713.21 -999 0.0716746957407 0.142847832097 -0.0940626201752
94 3 150333 143.18472 33.21502 8.8225663e-12 48.931664 396.30698 345708.4 -999 0.0699928929113 0.140552620236 -0.0933448058795
95 3 150333 135.99873 34.486896 8.2215551e-12 51.554318 375.67598 330487.7 -999 0.0684401286476 0.138131396872 -0.0927146181108
96 3 150333 146.77788 33.4629 7.7285421e-12 53.161584 406.07522 407013.36 -999 0.0667539108788 0.135912179293 -0.0920637105551
97 3 150333 140.39753 30.5262 8.795312e-12 54.621156 381.50621 310855.85 -999 0.0648945935108 0.133511336375 -0.0913481226269
98 3 150333 149.98813 32.666784 8.5177083e-12 56.483308 408.17328 472512.77 -999 0.0628432665956 0.131327486861 -0.0905754759568
99 3 150333 141.00949 25.056894 8.2948943e-12 58.010291 370.77478 305558.97 -999 0.0606770756501 0.128945550049 -0.0897785295134
100 3 150333 153.92497 29.558381 7.7585966e-12 61.272696 414.68704 499997.44 -999 0.0583681705549 0.126900808991 -0.088985034798
101 3 150333 142.68419 23.782546 6.3578104e-12 64.657434 369.92764 315626.56 -999 0.0560438588935 0.12460194146 -0.088232249222
102 3 150333 154.99048 26.676119 6.3478438e-12 68.756598 410.71654 540919.23 -999 0.0537015908434 0.122654241451 -0.0875506490044
103 3 150333 151.03456 24.481613 6.7302056e-12 71.876209 390.13956 395724.4 -999 0.0515380046565 0.120565773713 -0.0869857129861
104 3 150333 162.20147 25.479222 5.6635727e-12 74.362701 423.6893 600290.16 -999 0.0496265275302 0.118740072749 -0.0865782725879
105 3 150333 162.77723 24.99626 1.0633346e-11 75.707108 416.88884 446760.75 -999 0.0479960174204 0.116826860187 -0.0862928174305
106 3 150333 171.97492 26.6504 7.9786656e-12 76.233061 443.81431 638505.63 -999 0.0465051079423 0.11516122703 -0.0860866942865
107 3 150333 173.22094 26.103713 1.208513e-11 76.717844 440.37501 486640.27 -999 0.0449602053012 0.113461804295 -0.0858949061683
108 3 150333 182.50614 31.767715 1.0263876e-11 81.124159 468.63484 671879.73 -999 0.0432368937074 0.112062426688 -0.0856680543047
109 3 150333 186.55413 36.859062 1.3441043e-11 87.998866 475.79065 516019.55 -999 0.0416364821941 0.110640301033 -0.0853948932832
110 3 150333 196.5342 45.640027 1.2447552e-11 97.005813 505.91461 701743.39 -999 0.0402558984594 0.10944605241 -0.0850724987939
111 3 150333 206.1631 52.510859 1.5537488e-11 107.47781 529.93315 540724.09 -999 0.0394650024803 0.108311886389 -0.0847136004564
112 3 150333 226.07235 64.277479 1.7515134e-11 122.72766 589.20038 723230.84 -999 0.0389696970314 0.107376999773 -0.0843060715803
113 3 150333 246.41031 72.582694 2.124622e-11 133.70277 639.93501 561913.74 -999 0.0385834338039 0.106275085718 -0.0838339068912
114 3 150333 272.66719 79.218023 2.2381462e-11 140.49437 707.28592 755110.4 -999 0.0381340963577 0.105184393194 -0.0832893446923
115 3 150333 298.55728 82.869948 2.4496613e-11 142.30188 770.27353 579076.76 -999 0.0376080163988 0.103888906079 -0.0826768303655
116 3 150333 323.24599 83.178448 2.4470039e-11 137.8705 829.76734 783878.51 -999 0.0369040663891 0.102516337431 -0.0820120356529
117 3 150333 339.6534 79.501073 2.7216675e-11 127.38113 865.65708 616229.2 -999 0.0360900171572 0.100872564374 -0.0813206667391
118 3 150333 345.69861 72.693391 3.0413796e-11 112.4676 876.19215 795918.78 -999 0.0350724157863 0.0990715614773 -0.0806335747946
119 3 150333 338.64054 63.548423 3.6899119e-11 93.751399 854.0741 631101.13 -999 0.0337300118179 0.0969936771901 -0.0799424527138
120 3 150333 319.53752 52.267213 4.074875e-11 70.549275 802.54363 795577.14 -999 0.0318125222376 0.0947867518601 -0.079211791125
121 3 150333 287.04596 39.456648 4.2913545e-11 45.698613 714.65452 626768.83 -999 0.0291964948176 0.0924259980446 -0.0784334981543
122 3 150333 242.53799 29.756193 3.8876367e-11 30.920296 597.40708 803742.35 -999 0.0258826896545 0.0901554946057 -0.0776167300874
123 3 150333 186.94908 24.002094 3.2794904e-11 28.165451 455.91487 639234.53 -999 0.0222382597739 0.0880231125843 -0.0767867054826
124 3 150333 129.64404 20.651863 2.2091382e-11 26.522227 317.52602 801009.74 -999 0.0187768595528 0.0861959326972 -0.0759701309651
125 3 150333 85.464367 17.178671 1.6165866e-11 20.679932 214.04942 630325.3 -999 0.0158629022454 0.0846579896232 -0.0751781786144
126 3 150333 63.814069 14.219031 8.1542064e-12 15.040446 163.28572 807908.34 -999 0.0135829355912 0.0835059229165 -0.0744082813455
127 3 150333 50.113106 11.70093 1.1329005e-11 10.950183 128.24858 643088.92 -999 0.011713472417 0.0825858250275 -0.0736522295668
128 3 150333 38.777311 10.17887 5.7516232e-12 9.0680229 100.12583 799765.85 -999 0.00994565891459 0.0817925449315 -0.0729019652606
129 3 150333 29.272426 8.7271213 1.0752663e-11 7.1271029 75.49564 625424.59 -999 0.00815018114398 0.0810428977137 -0.0721573399029
130 3 150333 22.152242 8.7612166 5.3798014e-12 6.8632036 56.806184 807758.28 -999 0.00631793214963 0.080334913756 -0.0714201780694
131 3 150333 16.658606 8.0467907 1.0136264e-11 5.7837921 41.663566 642150.09 -999 0.00446276604283 0.0796843710586 -0.0706951520241
132 3 150333 14.158423 9.2883729 4.6977191e-12 6.2333197 32.845972 787261.67 -999 0.00262764155831 0.0790791625512 -0.0699876702962
133 3 150333 12.970821 8.6068359 9.4244432e-12 5.3335374 30.08763 616087.57 -999 0.000815006631869 0.0785649911526 -0.0693001680219
134 3 150333 16.067921 10.168659 4.6893976e-12 6.0130908 36.612888 800169.19 -999 -0.000939045876607 0.0780936444024 -0.0686360260501
135 3 150333 16.099638 9.128618 9.3824921e-12 5.235459 38.399455 636493.63 -999 -0.00264516933203 0.077736483405 -0.0679961231411
136 3 150333 20.66589 10.885933 4.836499e-12 5.8312364 49.494864 751828.13 -999 -0.00427311491191 0.077408495621 -0.06738222968
137 3 150333 19.381702 9.3441042 8.7914149e-12 4.8508958 47.870364 601215.59 -999 -0.005836460262 0.0772062589878 -0.0667961783636
138 3 150333 24.163404 11.211578 4.9831002e-12 5.7981832 60.113452 777833.74 -999 -0.00730659695935 0.0770190349867 -0.0662389065212
139 3 150333 20.895719 9.3890201 9.0753529e-12 5.0327706 53.445737 626376.17 -999 -0.00870987325448 0.0769711630072 -0.0657107215711
140 3 150333 26.808752 11.512547 5.0603106e-12 5.8209589 68.806945 724657.94 -999 -0.0100042107818 0.0769180387524 -0.0652132526295
141 3 150333 22.505174 9.4265989 8.0648013e-12 4.8645397 58.891226 556112.02 -999 -0.0112247038972 0.0770082805548 -0.0647463230267
142 3 150333 29.29444 11.441832 4.9969171e-12 6.0434389 76.705281 761743.5 -999 -0.0123300393662 0.0770795239152 -0.0643116867078
143 3 150333 23.761198 9.0867461 8.2921619e-12 5.1212442 63.184072 600569.85 -999 -0.0133609507837 0.077300896532 -0.063908803765
144 3 150333 31.120217 11.273342 4.7492778e-12 5.9881413 82.882948 715198.73 -999 -0.0142707476501 0.0774906109363 -0.0635400265768
145 3 150333 24.459946 8.782828 7.1621295e-12 5.0577367 65.977541 559331.52 -999 -0.015103875215 0.0778343973429 -0.0632053215515
146 3 150333 32.362597 10.84928 4.4571873e-12 6.2954753 87.33421 756703.39 -999 -0.0158091494121 0.0781336246726 -0.0629073415327
147 3 150333 24.716326 8.1875944 6.8562961e-12 5.2450038 67.425329 580243.05 -999 -0.0164331353352 0.0785862523021 -0.0626465806185
148 3 150333 32.920753 10.48369 3.9292367e-12 6.0464359 89.994849 687689.55 -999 -0.0169224978836 0.0789829666524 -0.0624260130131
149 3 150333 24.485898 7.7954953 5.3711234e-12 5.1170121 67.56229 533928.18 -999 -0.0173284232925 0.0795314552096 -0.0622461398974
150 3 150333 33.058024 9.9240043 3.4514045e-12 6.4517888 91.321899 742799.14 -999 -0.0175954086094 0.0800131589855 -0.0621102307594
151 3 150333 24.016924 7.1487409 4.8698229e-12 5.3891566 66.864918 577250.8 -999 -0.0177741921249 0.0806416644162 -0.0620193742711
152 3 150333 32.662692 9.526863 2.8587608e-12 6.1815295 91.225036 683018.34 -999 -0.0178084330126 0.0811946905011 -0.0619771328965
153 3 150333 23.23025 6.7723881 3.586876e-12 5.3062713 65.281592 545789.71 -999 -0.017750358318 0.0818889841089 -0.0619853016135
154 3 150333 32.019438 8.9745609 2.3193076e-12 6.5958116 90.272728 734786.31 -999 -0.0175421887672 0.0824995941111 -0.0620478886645
155 3 150333 22.329404 6.1989787 2.9408176e-12 5.4701616 63.258166 564913.19 -999 -0.0172358497674 0.0832434876869 -0.0621670425447
156 3 150333 30.99954 8.592825 1.7796377e-12 6.2525475 88.284956 675635.6 -999 -0.0167754045149 0.0838977125926 -0.062346725574
157 3 150333 21.229801 5.9368113 1.8680477e-12 5.2575484 60.693022 525589.73 -999 -0.0162128120379 0.0846773799491 -0.0625890093922
158 3 150333 29.861191 8.0877676 1.320899e-12 6.6591562 85.814106 724943.08 -999 -0.0154919548095 0.0853621681721 -0.0628981554628
159 3 150333 20.155425 5.4235238 1.4975691e-12 5.4811989 58.055967 560415.4 -999 -0.0146632902778 0.0861627748457 -0.0632759841469
160 3 150333 28.470994 7.7200487 9.8983355e-13 6.3157642 82.619813 671468.4 -999 -0.0136741601835 0.0868652742152 -0.0637263952793
161 3 150333 18.958314 5.1929026 1.0188018e-12 5.3018326 55.060329 531000.21 -999 -0.0125746064188 0.087674715374 -0.0642506637841
162 3 150333 27.05582 7.2505337 8.6252835e-13 6.7274539 79.215639 718481.81 -999 -0.0113149748624 0.0883837747606 -0.0648521721284
163 3 150333 17.810014 4.7338115 1.0103992e-12 5.4595946 52.107014 553062.85 -999 -0.00994250677113 0.0891898688441 -0.0655318669547
164 3 150333 25.484799 6.8718268 1.0046115e-12 6.4397906 75.319763 668460.58 -999 -0.00841437680598 0.0898951851967 -0.0662914787186
165 3 150333 16.582499 4.5508374 1.0906296e-12 5.2131011 48.920733 520519.88 -999 -0.00677108687163 0.0906884324944 -0.0671330412884
166 3 150333 23.947234 6.4259517 1.3420791e-12 6.944082 71.3691 716537.9 -999 -0.00497317356294 0.091381250816 -0.0680575007356
167 3 150333 15.436242 4.1208537 1.2618675e-12 5.4037191 45.876577 548567.5 -999 -0.00306302488363 0.0921523210539 -0.0690647827766
168 3 150333 22.310855 5.9942931 1.7946282e-12 6.9374245 67.018711 688127.19 -999 -0.0010045539579 0.0928249912078 -0.0701560354794
169 3 150333 14.22822 3.9394124 1.4324097e-12 5.1878716 42.625588 521427.02 -999 0.00116359480406 0.093566622261 -0.0713306342709
170 3 150333 20.695951 5.5332585 2.4015851e-12 7.7090594 62.566526 775178.54 -999 0.00347281423702 0.0942128813357 -0.0725890630156
171 3 150333 13.089128 3.5268914 1.5877964e-12 5.3553474 39.512834 544249.12 -999 0.00588780883217 0.0949180939493 -0.0739299091791
172 3 150333 18.931485 5.0344355 2.8239702e-12 7.4435411 57.647154 739346.72 -999 0.00843334567611 0.0955323049667 -0.0753523202227
173 3 150333 11.912243 3.3607598 1.7151166e-12 5.1243666 36.249375 517418.38 -999 0.0110793249104 0.0961958674859 -0.0768550736624
174 3 150333 17.154495 4.5817938 3.0430204e-12 7.3647973 52.693703 766164.38 -999 0.0138458537941 0.0967741011642 -0.0784373798369
175 3 150333 10.798818 2.97345 1.8360755e-12 5.2943721 33.13162 541094.39 -999 0.0167055887624 0.0973918425192 -0.0800964709542
176 3 150333 15.296012 4.1300142 3.1498973e-12 7.1602767 47.454118 737105.99 -999 0.019672637739 0.0979300831803 -0.0818303550489
177 3 150333 9.6472403 2.8277268 1.8785701e-12 5.0660977 29.857032 516174.34 -999 0.0227242168705 0.0984985833739 -0.0836366029993
178 3 150333 13.428268 3.7149743 3.0962512e-12 7.1274048 42.117239 760796.52 -999 0.0258708617629 0.098994343348 -0.0855133554698
179 3 150333 8.5256757 2.4640049 1.9500486e-12 5.2262202 26.647045 538869.9 -999 0.0290931706212 0.0995108608809 -0.0874576278316
180 3 150333 11.502785 3.3377968 3.1058225e-12 7.014973 36.538097 737553.41 -999 0.0323979776178 0.0999619695858 -0.0894675868485
181 3 150333 7.3673203 2.3538054 1.9249521e-12 5.0249892 23.261218 516779.07 -999 0.0357699649602 0.100424854925 -0.0915404732791
182 3 150333 9.5979376 3.0741769 2.9259149e-12 6.9696837 30.946939 756909.16 -999 0.0392120949817 0.100830228968 -0.0936742866338
183 3 150333 6.2480452 2.0624428 1.9715822e-12 5.1715859 19.970169 536918.43 -999 0.0427135094939 0.101238565267 -0.0958669881253
184 3 150333 7.7032846 2.9356933 2.889264e-12 6.8891054 25.29002 735945.66 -999 0.0462748052903 0.101597792002 -0.0981169502358
185 3 150333 5.1521925 2.0555528 1.9109317e-12 4.984738 16.634482 516332.31 -999 0.0498881579876 0.101951931939 -0.100422250988
186 3 150333 5.9493476 2.9105143 2.6174859e-12 6.8417152 19.908232 754186.12 -999 0.0535512935427 0.102265412395 -0.102781170139
187 3 150333 4.188536 1.9223157 1.9675973e-12 5.1352305 13.614667 536549.96 -999 0.0572598964147 0.102566248813 -0.105192439817
188 3 150333 4.4433624 3.0383456 2.5637372e-12 6.806721 14.943317 737833.31 -999 0.0610100474507 0.102835097975 -0.107654749925
189 3 150333 3.433862 2.0433669 1.9103061e-12 4.9601868 10.95563 516522.27 -999 0.0647992351634 0.103084659801 -0.11016692189
190 3 150333 3.5521885 3.1858695 2.2966569e-12 6.7644809 11.240381 753393.98 -999 0.0686222906741 0.103310601851 -0.112727855412
191 3 150333 3.0680241 2.0624738 1.9916712e-12 5.110394 9.2451554 536944.06 -999 0.0724789035529 0.10351116834 -0.115336807233
192 3 150333 3.5639676 3.4286566 2.2496269e-12 6.7433815 9.6867862 738747.17 -999 0.0763634799626 0.103696353453 -0.117993409027
193 3 150333 3.1590561 2.2516663 1.9530539e-12 4.9467458 8.7129202 518323.97 -999 0.0802773778637 0.103851487959 -0.120697170659
194 3 150333 4.3157518 3.6074446 2.048856e-12 6.7133041 10.854122 755021.06 -999 0.0842144373642 0.103998943552 -0.123447718609
195 3 150333 3.5939905 2.3338061 2.0424616e-12 5.0714164 9.4598282 537383.23 -999 0.0881781789909 0.104112669449 -0.126245239895
196 3 150333 5.3220272 3.816064 2.0083993e-12 6.6753125 13.393072 741559.69 -999 0.0921621167864 0.104225655556 -0.129089568505
197 3 150333 4.1858462 2.5041841 1.9930805e-12 4.9036204 10.895692 520214.87 -999 0.0961700501056 0.104302394764 -0.131980562598
198 3 150333 6.3048549 3.929422 1.858956e-12 6.6320678 16.224365 757860.14 -999 0.100195621446 0.104384482117 -0.134918021443
199 3 150333 4.7823549 2.5764728 2.04033e-12 5.0072948 12.542435 539425.44 -999 0.104243231667 0.104429086822 -0.13790199016
200 3 150333 7.1472878 4.061853 1.7980887e-12 6.5676131 18.75793 745847.64 -999 0.10830637471 0.104484130459 -0.140932029926
201 3 150333 5.4752798 3.6285086 1.0814501e-11 4.1493712 14.539858 522545.39 -999 0.112274061756 0.104490027848 -0.143936095554
202 3 150333 8.4470637 4.9002231 8.4871524e-12 5.7865517 22.587688 762196.42 -999 0.115936456766 0.104508217625 -0.146720185112
203 3 150333 6.3272493 3.3503194 7.1837051e-12 4.4878477 16.953549 542196.27 -999 0.119758390851 0.104487227244 -0.149656189779
204 3 150333 9.7290752 4.8505109 3.5737714e-12 6.1277784 26.419824 750882.07 -999 0.123871391284 0.104484437492 -0.152853832324
205 3 150333 7.2295992 3.3306632 3.3855186e-12 4.5544125 19.572804 525649.31 -999 0.128168945533 0.104431232265 -0.156220139443
206 3 150333 11.59084 5.3126894 3.4535618e-12 6.4157435 31.906901 765316.75 -999 0.132470395937 0.104397560939 -0.159621790186
207 3 150333 8.6104399 3.719009 3.6553585e-12 4.8716322 23.519939 544131.08 -999 0.136722678686 0.104301160705 -0.163017036249
208 3 150333 14.245846 6.2154917 4.1988181e-12 6.6540782 39.575714 752303.55 -999 0.140953246438 0.104230215092 -0.166433169531
209 3 150333 10.63249 4.4826676 4.8172839e-12 4.9270013 29.270232 526297.26 -999 0.145211300563 0.104083964211 -0.169902378204
210 3 150333 17.488852 7.3619599 4.8984397e-12 6.9159433 48.905096 768086.36 -999 0.149499370171 0.103971663364 -0.173430120082
211 3 150333 13.209733 5.3697872 6.3529518e-12 5.2473415 36.620263 545768.1 -999 0.153807858417 0.103772662687 -0.177002007213
212 3 150333 20.823321 8.4686448 6.1052085e-12 7.2351601 58.58965 755367.38 -999 0.158111583831 0.103616613616 -0.18060476255
213 3 150333 15.952792 6.1441412 8.34307e-12 5.3723034 44.536786 528902.5 -999 0.1624162462 0.103363981978 -0.184234303932
214 3 150333 23.494391 8.9495334 7.8381112e-12 7.5488325 66.578105 773127.67 -999 0.166708052031 0.103163048941 -0.18788787787
215 3 150333 18.249749 6.5494813 1.1397878e-11 5.7294569 51.297031 550199.13 -999 0.170995798832 0.102863659486 -0.19156182203
216 3 150333 24.842658 8.664149 1.0153239e-11 7.7113972 71.001866 765393.03 -999 0.175267290066 0.102622193272 -0.195254574252
217 3 150333 19.519252 6.406993 1.4964142e-11 5.7043089 55.304006 538007.49 -999 0.179525102377 0.102290417936 -0.198956878508
218 3 150333 24.679422 7.5892164 1.3766494e-11 7.6402573 71.154166 783928.07 -999 0.183748207217 0.1020182963 -0.20266419711
219 3 150333 19.452542 5.3884989 1.9781427e-11 5.6757384 55.552464 558659.08 -999 0.187954032064 0.101672645061 -0.206374138614
220 3 150333 23.173895 6.2449682 1.7360782e-11 7.3614751 67.344024 777560.85 -999 0.192116427565 0.101384472076 -0.21008108199
221 3 150333 18.021796 4.0010883 2.3826557e-11 5.2541228 51.907022 548442.4 -999 0.196251306156 0.1010424152 -0.21378143265
222 3 150333 20.711114 4.9602501 1.9806206e-11 7.0144707 60.638851 797394.44 -999 0.200331063646 0.100752968748 -0.217470359987