TITLE = "026.00"

# Column     1            2             3            4             5            6            7            8         9        10       11        12        13
VARIABLES = "ITERATION"  "GRID_LEVEL"  "GRID_SIZE"  "CONTINUITY"  "MOMENTUMX"  "MOMENTUMY"  "MOMENTUMZ"  "ENERGY"  "TURB1"  "TURB2"  "CL_TOT"  "CD_TOT"  "CM_TOT"

#---------------------------------------------------
#   PARTICIPANT, GRID, AND SOLVER INFORMATION
#---------------------------------------------------
DATASETAUXDATA ParticipantID   = "026"
DATASETAUXDATA SubmissionDate  = "October 23, 2024"
DATASETAUXDATA Name            = "Greg McGowan, Ian Eldridge-Allegra, Mike Tree"
DATASETAUXDATA Email           = "ian.eldridge-allegra@corvidtec.com"
DATASETAUXDATA Institution     = "Corvid Technologies"
DATASETAUXDATA SolverName      = "Raven 5.0"
DATASETAUXDATA BasicAlgorithm  = "RANS"
DATASETAUXDATA TurbulenceModel = "SA"
DATASETAUXDATA GridId          = "Unstructured"
DATASETAUXDATA Discretization  = "Finite Volume"
DATASETAUXDATA Order           = "2"
DATASETAUXDATA DistanceCalc    = "KD-Tree"
DATASETAUXDATA Notes           = ""
    

ZONE T="026.00 - Alpha 1.36 degree - Grid Level 1"
AUXDATA Tstatic         = "271.1056 K"
AUXDATA Deltat          = "-999"
AUXDATA GridFileName    = "ONERA-OAT15A_230mmChord_780mmSpan_upZ_2024_09_05_Unstructured_Level-1.pw"
AUXDATA Misc            = ""
1 1 47187 61.266097 116.17242 9.4955598e-14 31.093732 176.14458 2193.436 -999 -0.00197260313424 0.0801510977041 0.00163624103636
2 1 47187 39.641243 59.284001 1.3586216e-14 12.290195 113.13222 167.25603 -999 -0.00170364283467 0.0733182520881 0.00140628945388
3 1 47187 25.009154 37.6238 1.7460359e-14 5.9123827 71.06883 119.28965 -999 -0.00131948647205 0.0672616699259 0.00106969598834
4 1 47187 15.001275 23.586212 1.2339341e-14 4.1160373 42.884539 87.202702 -999 -0.000683035375027 0.0621309967099 0.000494656436233
5 1 47187 9.8183723 14.143265 8.6617573e-15 3.62261 28.210312 69.327636 -999 0.0004098534075 0.0582705943658 -0.000517853070792
6 1 47187 10.688193 12.212905 9.6114185e-15 3.7012407 29.018839 64.302292 -999 0.00220587542058 0.0562623047127 -0.00218698128283
7 1 47187 18.475039 15.229943 1.5253974e-14 4.3700198 47.212138 77.692479 -999 0.00499122404049 0.0566125990114 -0.00474212088635
8 1 47187 35.887104 21.061889 4.7877818e-14 5.9364932 89.173502 124.55267 -999 0.0089947453514 0.0596666612668 -0.00838952932756
9 1 47187 64.616623 29.046489 1.4155801e-13 7.9407473 159.98194 173.01548 -999 0.0143121067711 0.0655530626261 -0.0131622840098
10 1 47187 103.91271 38.084386 3.1668335e-13 9.6064444 259.38971 228.94782 -999 0.0209679995799 0.0742409890565 -0.0190578673694
11 1 47187 151.41114 46.878951 5.839255e-13 10.642397 383.1138 322.0458 -999 0.0289079910024 0.0855228178022 -0.0259756401976
12 1 47187 214.70004 56.147673 9.7365381e-13 10.57752 545.93443 2711.4829 -999 0.0379569304667 0.0989161640413 -0.0337005515345
13 1 47187 298.27575 125.46725 1.5101177e-12 9.3669715 767.41013 28377.238 -999 0.0478237344246 0.113879690871 -0.0419222858092
14 1 47187 369.13276 174.66562 1.9986876e-12 8.6281063 952.2108 19060.835 -999 0.0581686182391 0.130054942597 -0.0503344101127
15 1 47187 421.49664 187.17212 2.7680452e-12 12.321738 1089.8384 12098.652 -999 0.0686215795407 0.146851347569 -0.0586527184447
16 1 47187 456.82515 182.27424 3.0663044e-12 20.232061 1178.2993 7944.0275 -999 0.0787676241677 0.163622494187 -0.0665891855883
17 1 47187 472.74223 165.09433 3.4412977e-12 29.019865 1207.1079 5196.1998 -999 0.0881532364851 0.179674558341 -0.0738420291926
18 1 47187 470.96111 140.60125 3.790589e-12 36.118079 1178.4883 3515.1378 -999 0.0964782427423 0.194297404669 -0.080244380395
19 1 47187 452.7529 111.27755 4.2776667e-12 38.595493 1096.3551 2496.8943 -999 0.103578787831 0.206874171665 -0.085733231248
20 1 47187 439.29897 79.214225 6.0116449e-12 36.556675 1050.9257 3500.7302 -999 0.109385287183 0.216615452891 -0.0902435043064
21 1 47187 428.43865 54.670716 6.2336365e-12 31.244773 1077.1445 53621.76 -999 0.11369257763 0.222941642358 -0.0937510889487
22 1 47187 352.20545 48.07716 6.560516e-12 25.831912 823.56716 30028.736 -999 0.117002798109 0.227650435912 -0.0963912146584
23 1 47187 284.45943 71.759604 5.8304589e-12 31.460198 680.06504 46822.188 -999 0.119351215949 0.229892481068 -0.0983526299681
24 1 47187 187.6728 80.823816 4.7384097e-12 34.38792 401.81263 32952.65 -999 0.120978308204 0.230814803031 -0.0997258624857
25 1 47187 120.74485 98.671897 4.2824177e-12 41.387231 263.07373 48080.25 -999 0.122036011957 0.230106298864 -0.100607313005
26 1 47187 96.233719 60.915892 3.7184208e-12 41.503363 219.69788 52944.539 -999 0.122687151002 0.228337636686 -0.101186004158
27 1 47187 106.85156 55.228687 3.4144444e-12 43.41097 252.76409 41991.481 -999 0.123199341299 0.225799063583 -0.101600267536
28 1 47187 97.930164 41.679672 3.5669591e-12 42.1687 229.79407 41232.157 -999 0.123451185796 0.222506080931 -0.10189628234
29 1 47187 101.45725 47.08498 2.0519857e-12 36.901097 236.76873 39266.571 -999 0.123889535801 0.219109282101 -0.102266958621
30 1 47187 129.95404 60.688498 6.119961e-12 31.661706 314.18036 67358.384 -999 0.12467700245 0.216191852673 -0.102980560404
31 1 47187 134.03127 63.63688 4.0280322e-12 25.480137 318.88196 69363.366 -999 0.125360479868 0.21320508268 -0.103691819994
32 1 47187 123.28204 57.059334 4.7914083e-12 22.744352 286.97164 54520.658 -999 0.125811557403 0.209792979339 -0.104307935433
33 1 47187 117.19081 42.604579 2.0087895e-12 23.855635 263.03027 47743.665 -999 0.12589487443 0.206366068575 -0.104643818767
34 1 47187 120.075 37.151184 3.354409e-12 27.74232 275.52651 63475.468 -999 0.125844469469 0.203195936182 -0.104880063596
35 1 47187 122.94965 32.823273 2.9433697e-12 30.439334 295.57839 61785.889 -999 0.125935054937 0.200070496677 -0.105022550823
36 1 47187 105.16925 28.167794 2.5894599e-12 32.70761 254.3379 63926.372 -999 0.126042190855 0.196618378575 -0.105048055186
37 1 47187 94.818731 26.803428 1.8553092e-12 35.208537 233.04377 68938.748 -999 0.126274666163 0.192980755453 -0.105005148197
38 1 47187 109.30751 31.570907 2.3889715e-12 39.865037 279.33503 65092.763 -999 0.126466489589 0.189643836458 -0.104807737351
39 1 47187 105.25045 27.160044 1.7358396e-12 45.322885 263.60766 56234.3 -999 0.126489690445 0.186226830926 -0.104554082682
40 1 47187 106.33742 26.715497 1.0519899e-12 50.415578 262.3469 53777.511 -999 0.126691335183 0.182799213676 -0.104434198311
41 1 47187 132.91622 33.301087 1.5324398e-12 55.408556 336.31091 51796.113 -999 0.126908885035 0.179928617778 -0.104646199556
42 1 47187 138.89153 31.433544 1.727513e-12 60.190489 346.18171 56904.495 -999 0.126978070246 0.177017029616 -0.105053134415
43 1 47187 146.55515 30.730187 2.0862637e-12 64.052767 364.08419 60614.348 -999 0.126437219096 0.174202923451 -0.105434233961
44 1 47187 158.32964 32.863456 2.1193698e-12 66.447443 393.7389 50594.446 -999 0.125211871557 0.171682553249 -0.105581777341
45 1 47187 158.47848 27.001148 1.9213054e-12 65.820613 390.34066 32830.265 -999 0.123206951842 0.168942529611 -0.10543129933
46 1 47187 163.84373 28.349626 1.4448078e-12 62.500532 405.51367 29025.359 -999 0.120772883754 0.166372598059 -0.105148655055
47 1 47187 161.04511 27.496149 1.1341002e-12 56.767991 394.89255 40775.151 -999 0.118462079688 0.16358965655 -0.104943584182
48 1 47187 162.71004 28.805908 1.2354577e-12 48.757709 402.01762 57281.035 -999 0.116980281398 0.161084004086 -0.104984681426
49 1 47187 149.41045 25.238732 1.4965121e-12 41.74876 365.3596 39597.423 -999 0.116164616863 0.158334105083 -0.105300838185
50 1 47187 140.27725 27.549667 1.5600668e-12 37.922374 349.21685 45324.719 -999 0.116223517109 0.155832469345 -0.105799502326
51 1 47187 120.88842 24.206843 1.8417154e-12 36.414332 298.68276 43811.318 -999 0.116434145815 0.153104352828 -0.106277145183
52 1 47187 117.37721 26.462505 1.5659853e-12 37.897377 296.46772 60788.845 -999 0.116426197903 0.150668837785 -0.106531052952
53 1 47187 113.91355 28.354984 1.5832312e-12 41.315671 290.74022 44761.862 -999 0.115725653699 0.148198163048 -0.106505616586
54 1 47187 117.21407 29.579945 1.3879675e-12 46.149871 299.66309 45801.091 -999 0.11471911543 0.14582338896 -0.106252077419
55 1 47187 127.63339 33.687337 1.2616299e-12 52.802922 325.70841 24092.209 -999 0.113102071266 0.14359643103 -0.105862777632
56 1 47187 148.58883 43.787087 1.3538235e-12 62.54757 383.76713 62312.401 -999 0.11179675278 0.141840140221 -0.105450559871
57 1 47187 171.16764 54.618238 1.4850688e-12 75.49883 442.99821 36264.171 -999 0.110251440896 0.140078110342 -0.105045706877
58 1 47187 197.0155 63.845205 1.48449e-12 85.414914 511.60662 51528.669 -999 0.108677239891 0.138353710618 -0.104655996691
59 1 47187 219.48091 67.643702 1.5683461e-12 88.686561 567.70387 19137.186 -999 0.106799539248 0.136304094234 -0.104265440545
60 1 47187 239.97909 66.63957 1.972366e-12 83.623132 619.1712 43319.976 -999 0.10488719414 0.134248985131 -0.103874019339
61 1 47187 251.03726 59.749167 2.4910628e-12 70.59533 643.64195 25227.599 -999 0.102799379766 0.131881226636 -0.103477881823
62 1 47187 251.96332 49.110578 3.1256483e-12 52.444461 641.99335 46282.978 -999 0.100584105481 0.12951884613 -0.103074042633
63 1 47187 236.53128 35.485022 3.5097843e-12 32.355406 596.87364 30920.22 -999 0.0982605024965 0.126876417557 -0.102661904942
64 1 47187 201.70603 20.492039 3.419658e-12 15.49157 502.38407 33674.02 -999 0.0957911171378 0.124231324053 -0.102238707078
65 1 47187 150.12576 8.8251994 2.9485908e-12 14.527342 367.75019 17746.471 -999 0.0930848052957 0.121474435433 -0.101802934131
66 1 47187 96.54873 4.4692928 2.1276344e-12 15.839634 233.78699 29736.157 -999 0.0903947477273 0.118996433852 -0.101359298442
67 1 47187 51.699283 4.1463101 1.2303685e-12 12.14839 124.45163 9725.9003 -999 0.0877853721543 0.116755196389 -0.100909377968
68 1 47187 27.331194 3.9025612 7.0470266e-13 6.9011076 70.288715 15478.764 -999 0.0853348113791 0.114995087516 -0.100454012921
69 1 47187 16.424812 2.7216805 5.9944128e-13 3.1155998 45.368951 18955.081 -999 0.0829622309801 0.113444265393 -0.0999936638001
70 1 47187 14.229597 2.1557468 5.1447186e-13 1.9021899 39.94913 17914.271 -999 0.0806701072076 0.11210538927 -0.099528495421
71 1 47187 12.714969 2.0750471 4.2113364e-13 1.210029 36.254416 10232.408 -999 0.0783184359664 0.110764536528 -0.0990572461863
72 1 47187 15.958365 3.6033547 4.0710388e-13 1.6281928 47.014443 24818.04 -999 0.0759836067975 0.109512227738 -0.098582557499
73 1 47187 12.448706 2.2054216 2.5870656e-13 0.72830401 36.106997 9926.2643 -999 0.0735857622141 0.10817303884 -0.0981058670503
74 1 47187 13.768648 2.2174572 4.7578741e-13 0.97112776 38.903768 15695.53 -999 0.0712370253587 0.106936609034 -0.0976327072445
75 1 47187 11.741337 2.4725444 4.4800885e-13 0.75234403 34.152744 14906.237 -999 0.0688658308164 0.105684172845 -0.0971645188
76 1 47187 15.180041 2.7168913 3.3315117e-13 1.0376797 43.905427 19094.066 -999 0.06658646201 0.104567102246 -0.0967055608894
77 1 47187 12.095824 2.3294063 2.2746611e-13 0.63685131 35.519157 13926.327 -999 0.0643206154747 0.103420848884 -0.0962588113475
78 1 47187 12.650764 1.9189171 2.4331263e-13 1.1298485 35.490533 15208.859 -999 0.0621675124888 0.10239272865 -0.0958297705032
79 1 47187 11.112236 1.7132474 3.0448495e-13 0.65149835 32.124051 12001.769 -999 0.0600427991862 0.101374842932 -0.095423718995
80 1 47187 14.208242 2.4875667 1.4813622e-13 0.93739237 41.38772 18093.832 -999 0.0580625606288 0.10049380679 -0.0950466707412
81 1 47187 9.6046193 1.1946709 1.394317e-13 0.42938152 27.934421 9313.1259 -999 0.0561497520137 0.0995755145458 -0.0947029912757
82 1 47187 11.177105 1.5592318 1.4618561e-13 0.91578853 31.426967 13939.597 -999 0.0543859468473 0.0987887352285 -0.0943973477391
83 1 47187 8.9070811 1.4908314 1.5610848e-13 0.83779759 26.374143 15465.808 -999 0.0527179130164 0.098010189112 -0.0941344858376
84 1 47187 12.347735 1.964844 1.0061153e-13 1.1058546 36.202887 20696.642 -999 0.0512325777482 0.0973654742055 -0.0939205374941
85 1 47187 7.7090969 0.91138586 1.597627e-13 0.4295643 22.895134 12208.399 -999 0.0498565820012 0.0966819818902 -0.093758623917
86 1 47187 9.3764482 1.2266243 7.1262776e-14 0.84961137 26.386258 11496.965 -999 0.0486611348593 0.0961148201991 -0.0936540113813
87 1 47187 6.8162469 0.96369498 1.4496842e-13 0.80441983 20.13026 11405.481 -999 0.0476041932056 0.0955522918829 -0.0936121217681
88 1 47187 9.7019183 1.4715852 9.4236608e-14 1.1371684 28.6762 21695.287 -999 0.0467492196854 0.0951066168717 -0.0936370032613
89 1 47187 5.1293551 0.56879274 1.9141976e-13 0.35577106 15.153171 8993.0497 -999 0.0460530974604 0.0946279074905 -0.0937329878811
90 1 47187 7.6288412 1.0193973 1.1087233e-13 0.79337362 21.851059 13203.718 -999 0.0455564120565 0.0942568705004 -0.0939039981428
91 1 47187 4.9722957 0.78043828 1.842879e-13 0.69780899 14.920115 12780.033 -999 0.0452416556088 0.0938804920968 -0.0941551666568
92 1 47187 7.0782135 0.98303762 1.1836653e-13 0.92405826 21.039322 20538.551 -999 0.0451453545349 0.0935948622473 -0.0944908349472
93 1 47187 3.5516111 0.50258913 1.9723066e-13 0.34507417 10.473163 9293.3472 -999 0.0452293260824 0.0932873755878 -0.0949102209348
94 1 47187 5.6698785 0.80325777 1.3011575e-13 0.77043846 16.573529 15579.149 -999 0.0455217342847 0.0930624712025 -0.0954175712442
95 1 47187 3.6271265 0.61610841 1.681287e-13 0.60561392 10.892342 12314.048 -999 0.0460068618641 0.0928306400659 -0.096016881396
96 1 47187 4.9962188 0.78336845 1.2559632e-13 0.82487379 15.020118 18519.603 -999 0.0467036831847 0.0926643987705 -0.0967093625548
97 1 47187 2.6300977 0.45502496 1.6463783e-13 0.35188455 7.644828 8924.9925 -999 0.0475948345879 0.0924822383342 -0.0974975760206
98 1 47187 3.9508967 0.64981197 1.1715839e-13 0.62959447 11.662969 12199.386 -999 0.0486913926793 0.0923571101944 -0.0983835578199
99 1 47187 2.583075 0.50521272 1.3121129e-13 0.49826411 7.7707799 11165.94 -999 0.049980252662 0.0922262809183 -0.0993693006017
100 1 47187 3.3788005 0.69823634 1.1939765e-13 0.81045377 10.312979 16554.66 -999 0.0514723730011 0.0921397794569 -0.100456012182
101 1 47187 1.910267 0.42809206 1.1575128e-13 0.36827051 5.5800774 8435.1838 -999 0.0531488609654 0.092042544494 -0.101645994462
102 1 47187 2.8061846 0.6533204 1.1416203e-13 0.70999362 8.4529901 13003.003 -999 0.0550135681558 0.091984038747 -0.102937882706
103 1 47187 1.8842852 0.51969147 1.0992758e-13 0.5226868 5.7792949 11978.118 -999 0.0570484849051 0.0919191520387 -0.10433231297
104 1 47187 2.7139498 0.69976221 1.0674932e-13 0.92685512 8.3503419 16739.641 -999 0.0592662088162 0.091886276506 -0.105830284824
105 1 47187 1.5788117 0.42010867 8.0609811e-14 0.39202529 4.6756059 8291.366 -999 0.0616404768157 0.0918412874802 -0.107431579351
106 1 47187 2.4525376 0.64073517 9.4660578e-14 0.79089482 7.2615003 12932.059 -999 0.0641827489365 0.0918254753505 -0.109136232072
107 1 47187 1.5046281 0.50167786 9.1265813e-14 0.49823567 4.5238638 10412.949 -999 0.0668674678577 0.0918009201179 -0.110944049258
108 1 47187 2.6947868 0.71409858 8.265556e-14 1.0514866 8.0567639 17241.646 -999 0.0697093026948 0.0918048527207 -0.112854120101
109 1 47187 1.3913188 0.40690036 6.000925e-14 0.40317849 4.0218523 8124.2298 -999 0.0726771068108 0.0917936917499 -0.114865520843
110 1 47187 2.5139259 0.63387863 7.4321048e-14 0.84112568 7.1660235 12677.532 -999 0.0757874289351 0.0918096674398 -0.116977387818
111 1 47187 1.3326361 0.53096836 8.8835133e-14 0.51726119 3.7823568 10878.016 -999 0.0790087025976 0.0918145931903 -0.119187589128
112 1 47187 2.8320479 0.71424307 6.0374062e-14 1.1133017 8.1760859 17208.808 -999 0.08235996386 0.0918480983517 -0.121494928649
113 1 47187 1.2740189 0.40414112 5.2706442e-14 0.40990624 3.4219577 8105.9549 -999 0.0858035605479 0.091865371182 -0.123896715053
114 1 47187 2.58289 0.64519561 5.8607825e-14 0.86940985 7.1216524 12768.177 -999 0.0893619136653 0.091909612603 -0.126391255938
115 1 47187 1.2391361 0.5450283 7.3573942e-14 0.51391452 3.1104979 10558.829 -999 0.0930007689744 0.0919423022569 -0.128975266402
116 1 47187 2.8225664 0.74185581 5.0655526e-14 1.1082901 7.9003505 17014.069 -999 0.0967418678289 0.0920032147747 -0.131646663887
117 1 47187 1.2284198 0.43404068 4.4798467e-14 0.41345211 2.8736103 8108.3562 -999 0.100546287439 0.0920491886647 -0.134401574905
118 1 47187 2.5001545 0.69199031 4.8016828e-14 0.86617302 6.6740171 12709.324 -999 0.104436790587 0.0921206458546 -0.1372364167
119 1 47187 1.3180698 0.60007539 5.9436013e-14 0.51521837 2.9060287 10533.039 -999 0.108378516965 0.092181964231 -0.140146473796
120 1 47187 2.7116407 0.81805578 4.3586125e-14 1.1008865 7.3612583 17111.003 -999 0.112390455971 0.0922686879942 -0.143126797133
121 1 47187 1.4413676 0.48954375 4.1570156e-14 0.42063536 3.1501964 8140.8666 -999 0.116434748957 0.0923433180842 -0.146172371291
122 1 47187 2.4684661 0.76573756 4.247282e-14 0.87075678 6.3849861 12771.86 -999 0.120532987709 0.0924394827027 -0.149278015153
123 1 47187 1.6709428 0.658508 5.1920684e-14 0.5175384 3.7549546 10435.03 -999 0.124650266994 0.0925271163909 -0.152437033955
124 1 47187 2.6825465 0.89753613 3.9324222e-14 1.0817659 7.0716365 16690.299 -999 0.128803822224 0.0926350898243 -0.155643086388
125 1 47187 1.8157072 0.53113838 4.3601851e-14 0.43241424 4.1696019 8163.4431 -999 0.13295565963 0.0927336042518 -0.158888484997
126 1 47187 2.5538306 0.82709438 4.2352471e-14 0.88434858 6.5015849 12695.477 -999 0.13712489693 0.0928475190823 -0.162166252112
127 1 47187 2.068157 0.69265006 4.9600493e-14 0.52468674 4.9274082 10335.514 -999 0.141278415866 0.0929538466375 -0.165468836473
128 1 47187 2.801338 0.95026844 3.8153692e-14 1.1038302 7.3076084 16601.346 -999 0.145432294734 0.0930740762995 -0.168789050909
129 1 47187 2.1594813 0.54211067 4.3246684e-14 0.44863783 5.2010038 8176.0528 -999 0.149550461562 0.0931855779215 -0.172118639199
130 1 47187 2.7374307 0.85591482 4.2088754e-14 0.9230931 6.9972187 12731.942 -999 0.153652016177 0.0933060845273 -0.175450233444
131 1 47187 2.3564976 0.69490017 4.4528226e-14 0.53723728 5.8256276 10219.171 -999 0.157703238239 0.0934174365138 -0.178774606092
132 1 47187 2.9540393 0.9537559 3.556114e-14 1.1355131 7.7131238 16171.647 -999 0.16172060006 0.0935361337634 -0.182084655782
133 1 47187 2.3740395 0.52789889 3.6538235e-14 0.46729334 5.8651272 8171.1764 -999 0.16567286257 0.0936443544442 -0.185374589584
134 1 47187 2.8850605 0.84870693 3.70299e-14 0.96666728 7.4226756 12607.543 -999 0.169580691989 0.0937558580029 -0.188637723121
135 1 47187 2.5008763 0.67524463 3.442246e-14 0.5543494 6.28596 10098.703 -999 0.173413210315 0.0938550811859 -0.191866428654
136 1 47187 3.0576392 0.93041476 2.8868772e-14 1.1902401 8.0085745 16108.622 -999 0.177188580675 0.0939566151221 -0.195054000761
137 1 47187 2.4583585 0.50348524 2.5636048e-14 0.48547976 6.1244628 8142.0853 -999 0.18087573741 0.0940429558175 -0.198194486347
138 1 47187 2.9642497 0.82130893 2.7710583e-14 1.0106406 7.6434504 12456.449 -999 0.184497863684 0.0941275916036 -0.201282431659
139 1 47187 2.5308619 0.64667445 2.2595319e-14 0.57328881 6.3748578 9988.372 -999 0.188026665234 0.0941946309345 -0.204312358399
140 1 47187 3.0954067 0.89298303 2.1172059e-14 1.2375123 8.0977303 15963.703 -999 0.191482668658 0.0942598058702 -0.207278839848
141 1 47187 2.4610933 0.48042195 1.6594702e-14 0.50004142 6.1101775 8097.695 -999 0.194835828877 0.0943035026701 -0.210177182365
142 1 47187 2.981909 0.78937392 1.9030881e-14 1.0510392 7.6642078 12467.457 -999 0.198110950382 0.094341632914 -0.213002809467
143 1 47187 2.5053456 0.61612609 1.658379e-14 0.59155434 6.2566744 9904.329 -999 0.201280554667 0.0943559103535 -0.215751315875
144 1 47187 3.0940725 0.85743624 1.908145e-14 1.2763677 8.0495501 15923.383 -999 0.204371149961 0.0943649558789 -0.218420761568
145 1 47187 2.4174954 0.45768409 1.6559633e-14 0.50994826 5.9418573 8048.6865 -999 0.207351486313 0.0943461396804 -0.221005892334
146 1 47187 2.9408079 0.75889995 1.7604182e-14 1.0780293 7.5120266 12453.143 -999 0.210248559966 0.094318622116 -0.223503877635
147 1 47187 2.406055 0.58429435 2.0817726e-14 0.60735722 5.9464836 9857.5262 -999 0.213035918071 0.0942615472118 -0.22591092675
148 1 47187 3.0202542 0.82821565 2.2757103e-14 1.2985424 7.8143079 15870.136 -999 0.215738503351 0.0941962201739 -0.228224725695
149 1 47187 2.3176491 0.43156171 2.1291184e-14 0.51517767 5.6381652 8004.179 -999 0.218329027135 0.0940974822393 -0.230442430495
150 1 47187 2.8420198 0.73662915 2.1485424e-14 1.0985483 7.2134772 12630.94 -999 0.22083463525 0.0939875332312 -0.232562133218
151 1 47187 2.2784626 0.55274862 2.6982062e-14 0.61913784 5.5659204 9849.2722 -999 0.223231164171 0.093843658512 -0.2345813678
152 1 47187 2.8929609 0.81274515 2.590161e-14 1.3114115 7.4453377 15948.672 -999 0.225544672939 0.0936890569491 -0.236499583961
153 1 47187 2.181314 0.40223472 2.4302292e-14 0.51589579 5.2581206 7970.2967 -999 0.227749809712 0.0934973832163 -0.238314909916
154 1 47187 2.6804206 0.72195572 2.4183866e-14 1.1030805 6.7633911 12619.941 -999 0.229873405448 0.0932926728626 -0.240026779601
155 1 47187 2.1109598 0.52437842 3.0247723e-14 0.62605222 5.1097192 9871.3249 -999 0.231894681325 0.0930515178672 -0.241634346526
156 1 47187 2.6954729 0.81156042 2.5901869e-14 1.3138504 6.90958 16030.817 -999 0.233838489436 0.0927981488079 -0.243138047794
157 1 47187 2.0075695 0.37421298 2.4310961e-14 0.51332785 4.8099554 7949.4995 -999 0.235683725408 0.0925063858552 -0.244538135022
158 1 47187 2.4614919 0.71826599 2.3905858e-14 1.1015176 6.1837295 12597.458 -999 0.23745720776 0.0922006859209 -0.245836080611
159 1 47187 1.9233629 0.5035361 2.9894248e-14 0.62893344 4.6307869 9910.262 -999 0.239142316889 0.0918587114857 -0.247033385143
160 1 47187 2.4478326 0.82274002 2.3173785e-14 1.3089322 6.2543025 16050.825 -999 0.240763263763 0.0915041525286 -0.248132707158
161 1 47187 1.8162778 0.35384253 2.1877849e-14 0.50981175 4.3411772 7942.0039 -999 0.242304524327 0.0911130658796 -0.249137311096
162 1 47187 2.2069339 0.72772867 2.1408049e-14 1.1028479 5.5303074 12708.966 -999 0.243792978687 0.0907087996233 -0.250051406773
163 1 47187 1.7254474 0.49260759 2.6685689e-14 0.63006255 4.1475027 9952.8558 -999 0.24521556755 0.0902714224767 -0.250878124441
164 1 47187 2.1721837 0.84140794 1.941989e-14 1.3011506 5.5316718 15973.808 -999 0.246596793782 0.0898227264052 -0.251622597472
165 1 47187 1.6401266 0.34159871 1.823993e-14 0.50749501 3.9209838 7943.5718 -999 0.247925737844 0.0893419745995 -0.252290305847
166 1 47187 1.9672238 0.74245764 1.8185217e-14 1.1024149 4.9092128 12764.361 -999 0.249227380672 0.0888504801075 -0.252887290804
167 1 47187 1.5869751 0.48996272 2.2089491e-14 0.6309754 3.8171208 9989.9512 -999 0.250494202488 0.0883312456241 -0.253419551303
168 1 47187 1.9446601 0.86824519 1.6517359e-14 1.2996165 4.9191788 16017.886 -999 0.251748912742 0.0878038090729 -0.253893807844
169 1 47187 1.5478293 0.33787575 1.4616142e-14 0.50735256 3.7050303 7951.8568 -999 0.252983731317 0.0872509572805 -0.254316379949
170 1 47187 1.7977352 0.76232707 1.556998e-14 1.1062677 4.4531821 12813.003 -999 0.25422188762 0.0866911524741 -0.254694815756
171 1 47187 1.5336339 0.49336751 1.7479173e-14 0.63296538 3.6950162 10017.172 -999 0.255458511912 0.0861107888291 -0.255036010904
172 1 47187 1.7901024 0.89623732 1.5248701e-14 1.299165 4.4793002 15983.196 -999 0.256713813832 0.08552646407 -0.255347242019
173 1 47187 1.5251839 0.34096292 1.1926287e-14 0.50923237 3.6621785 7962.0449 -999 0.257982800623 0.0849248173547 -0.255635601145
174 1 47187 1.68584 0.78352438 1.4304741e-14 1.1118448 4.1434916 12811.169 -999 0.259285753701 0.0843210804147 -0.255908942231
175 1 47187 1.5223053 0.49923915 1.402273e-14 0.63649128 3.6839769 10034.14 -999 0.26061944796 0.0837048097349 -0.256173992406
176 1 47187 1.6733656 0.92453369 1.5217238e-14 1.3011789 4.1483117 15962.005 -999 0.262000373656 0.083089573942 -0.256437657115
177 1 47187 1.5080718 0.34567547 1.0554069e-14 0.51247059 3.6430509 7969.3361 -999 0.263424657985 0.0824654251277 -0.256706111881
178 1 47187 1.5828371 0.80425839 1.4018189e-14 1.119124 3.8768054 12809.205 -999 0.264906934477 0.0818443036724 -0.256985261302
179 1 47187 1.4871281 0.50373056 1.2168852e-14 0.64143528 3.6271781 10047.34 -999 0.266445362661 0.0812187594084 -0.257281271916
180 1 47187 1.5454017 0.95082539 1.5603521e-14 1.3038839 3.8197314 15927.236 -999 0.268051456639 0.0805992212674 -0.257599385978
181 1 47187 1.4506052 0.34843897 1.0183968e-14 0.51649686 3.5390902 7976.8716 -999 0.26972045716 0.0799788563256 -0.257943025405
182 1 47187 1.4585658 0.82304964 1.407857e-14 1.1269133 3.5849851 12804.094 -999 0.271463970164 0.0793663117273 -0.258317775522
183 1 47187 1.4142165 0.50526132 1.1512496e-14 0.6478907 3.4906878 10055.321 -999 0.27327849315 0.0787567285905 -0.258726626011
184 1 47187 1.408324 0.97533702 1.5989835e-14 1.307583 3.5016247 15896.986 -999 0.275169815271 0.0781571701708 -0.259172198024
185 1 47187 1.3670478 0.34902716 1.0209401e-14 0.52151279 3.3811057 7980.8648 -999 0.277134315973 0.0775638317576 -0.259656783933
186 1 47187 1.3308894 0.8402612 1.4194048e-14 1.1354886 3.3102812 12802.304 -999 0.279176177139 0.0769818778974 -0.260182100375
187 1 47187 1.3269262 0.50496301 1.1424116e-14 0.65448858 3.3245055 10062.759 -999 0.28129169111 0.0764089427536 -0.260749094936
188 1 47187 1.2860741 0.998014 1.6278292e-14 1.3116071 3.2474413 15865.824 -999 0.283481444903 0.075848674342 -0.261357780147
189 1 47187 1.2814454 0.34853124 1.0223794e-14 0.52546715 3.2204204 7982.0224 -999 0.285741180878 0.0752998924871 -0.262007774901
190 1 47187 1.2301158 0.85592236 1.423881e-14 1.1438618 3.1186159 12801.994 -999 0.28806970097 0.074764536704 -0.2626984484
191 1 47187 1.2476677 0.50350922 1.1475258e-14 0.66107509 3.175641 10070.516 -999 0.290461625797 0.0742422516739 -0.263427369706
192 1 47187 1.2012573 1.0185605 1.6378915e-14 1.3161196 3.1056869 15834.992 -999 0.292914060908 0.0737335817893 -0.264193347622
193 1 47187 1.2088005 0.34677484 1.0067131e-14 0.52881506 3.0851509 7980.6639 -999 0.295422531256 0.0732395825047 -0.264993535839
194 1 47187 1.1614919 0.86920467 1.4071922e-14 1.1518412 3.0157887 12803.495 -999 0.297980068998 0.0727590220437 -0.265824453316
195 1 47187 1.1803091 0.50041534 1.1477935e-14 0.66737991 3.0452335 10077.402 -999 0.30058281268 0.0722936742214 -0.266682990587
196 1 47187 1.1495854 1.0359102 1.6250517e-14 1.32112 3.055251 15809.841 -999 0.30322300934 0.0718408753855 -0.267565376363
197 1 47187 1.1417164 0.34316461 9.7649652e-15 0.53160652 2.953427 7976.4434 -999 0.305896034555 0.0714038808585 -0.26846682278
198 1 47187 1.116835 0.8793227 1.3717208e-14 1.1595244 2.9718055 12807.344 -999 0.308592465157 0.0709786038614 -0.269383235946
199 1 47187 1.1112293 0.49537776 1.1518383e-14 0.67378993 2.898793 10086.646 -999 0.3113079626 0.0705684773798 -0.270309495576
200 1 47187 1.1157005 1.0491831 1.5875428e-14 1.3267538 3.0475321 15790.242 -999 0.314032021124 0.0701683216823 -0.271240952796
201 1 47187 1.2655371 0.86083123 7.8180161e-13 0.81492936 2.9075492 7976.2243 -999 0.316694607009 0.0697581734126 -0.272138102309
202 1 47187 3.9686875 1.8089896 9.0431456e-13 1.7377478 10.006296 12783.926 -999 0.319091963689 0.0693479490588 -0.272955507357
203 1 47187 6.1878557 2.290595 6.9530916e-13 1.158661 15.889075 9659.5049 -999 0.321574475602 0.0688105548391 -0.273787598445
204 1 47187 12.63502 3.4022778 6.4931351e-13 2.5198793 32.722084 14330.147 -999 0.324269167519 0.0681810431589 -0.274655448395
205 1 47187 12.400199 2.4578953 5.4656739e-13 0.9852183 31.662061 6218.0941 -999 0.326979389862 0.0673514052581 -0.275510475161
206 1 47187 19.385316 3.0715231 8.3687239e-13 2.173864 49.608974 10747.009 -999 0.329645886238 0.0665216222518 -0.276315537539
207 1 47187 15.755813 1.6706121 1.5729792e-12 1.4256376 40.144671 8667.6566 -999 0.332182038714 0.0655337491195 -0.277073974207
208 1 47187 24.23549 4.2374403 2.0108285e-12 3.2484408 63.9085 17602.58 -999 0.33474088171 0.0646533800853 -0.277813034083
209 1 47187 12.418069 0.99344683 3.0468806e-12 0.98812795 31.548698 6987.4719 -999 0.337241362139 0.0636064118755 -0.278553402038
210 1 47187 17.090366 3.3955853 5.1267682e-12 2.6695772 45.523269 24655.603 -999 0.339773906105 0.0627320102516 -0.279304750968
211 1 47187 8.3109479 1.6746659 4.2693654e-12 1.5515589 22.082467 15404.932 -999 0.342264583443 0.0618281445793 -0.280065184915
212 1 47187 16.527612 2.6097461 5.9687316e-12 2.7745019 46.09806 45024.114 -999 0.344775902686 0.0611337448806 -0.280826363732
213 1 47187 4.6533113 0.97114968 2.1364133e-12 0.70995427 11.979202 10691.504 -999 0.347196022932 0.0603334486821 -0.281578183892
214 1 47187 11.608219 1.3703216 4.6674052e-12 1.4268981 31.804259 21550.044 -999 0.349591970281 0.0597016465435 -0.282311437749
215 1 47187 3.7351604 0.54923179 3.1041248e-12 0.68141713 9.9740384 10039.17 -999 0.351895764396 0.0590021433215 -0.283019654024
216 1 47187 6.1909307 1.6646117 5.1161233e-12 0.99937955 16.437744 15581.843 -999 0.3541500219 0.0583838826522 -0.283699774721
217 1 47187 2.3008288 0.4705538 1.6400079e-12 0.58911648 6.0988097 7471.3182 -999 0.356306755214 0.0577385935173 -0.284350568516
218 1 47187 4.7395242 1.3493972 4.1814334e-12 1.2458959 13.114049 19729.51 -999 0.358378829784 0.0571332033163 -0.284970948622
219 1 47187 2.7627304 0.40241909 2.5524216e-12 0.87896754 7.7432956 12367.844 -999 0.360335931107 0.0565150277534 -0.285555672981
220 1 47187 3.6108232 1.087593 2.2828899e-12 1.1361216 9.3622622 13597.995 -999 0.362179357912 0.0559127488161 -0.286099357584
221 1 47187 2.0503146 0.31065629 9.6929778e-13 0.60055281 5.4220127 7702.4262 -999 0.363884005505 0.0553385756369 -0.286590620522
222 1 47187 3.7179253 1.7350885 1.7789797e-12 1.1822939 9.1261762 16059.659 -999 0.36542883197 0.0547753092328 -0.287017452871
223 1 47187 1.4913217 0.53354447 1.4398546e-12 0.67646957 3.881766 9712.8265 -999 0.366823662242 0.054273561573 -0.287368637977
224 1 47187 4.5949831 1.4633262 1.2463138e-12 1.1340183 11.303573 11487.351 -999 0.368035842369 0.0537699583251 -0.287633827534