TITLE = "026.00"

# Column     1            2             3            4             5            6            7            8         9        10       11        12        13
VARIABLES = "ITERATION"  "GRID_LEVEL"  "GRID_SIZE"  "CONTINUITY"  "MOMENTUMX"  "MOMENTUMY"  "MOMENTUMZ"  "ENERGY"  "TURB1"  "TURB2"  "CL_TOT"  "CD_TOT"  "CM_TOT"

#---------------------------------------------------
#   PARTICIPANT, GRID, AND SOLVER INFORMATION
#---------------------------------------------------
DATASETAUXDATA ParticipantID   = "026"
DATASETAUXDATA SubmissionDate  = "October 23, 2024"
DATASETAUXDATA Name            = "Greg McGowan, Ian Eldridge-Allegra, Mike Tree"
DATASETAUXDATA Email           = "ian.eldridge-allegra@corvidtec.com"
DATASETAUXDATA Institution     = "Corvid Technologies"
DATASETAUXDATA SolverName      = "Raven 5.0"
DATASETAUXDATA BasicAlgorithm  = "RANS"
DATASETAUXDATA TurbulenceModel = "SA"
DATASETAUXDATA GridId          = "Unstructured"
DATASETAUXDATA Discretization  = "Finite Volume"
DATASETAUXDATA Order           = "2"
DATASETAUXDATA DistanceCalc    = "KD-Tree"
DATASETAUXDATA Notes           = ""
    

ZONE T="026.00 - Alpha 1.36 degree - Grid Level 2"
AUXDATA Tstatic         = "271.1056 K"
AUXDATA Deltat          = "-999"
AUXDATA GridFileName    = "ONERA-OAT15A_230mmChord_780mmSpan_upZ_2024_09_05_Unstructured_Level-2.pw"
AUXDATA Misc            = ""
1 2 89616 73.26673 270.87825 4.5133031e-13 61.546144 207.3868 7626.8662 -999 -0.00278442515381 0.11169010188 0.0023119841797
2 2 89616 47.860759 73.598724 3.3408838e-14 16.592453 134.74755 163.20454 -999 -0.00243178998106 0.098635171438 0.00201612488125
3 2 89616 30.443436 47.329645 2.7766165e-14 8.5231366 85.872963 108.15572 -999 -0.00211596291881 0.0875442562115 0.00175237302503
4 2 89616 18.207228 29.988654 3.1978107e-14 5.6986715 52.157082 81.401233 -999 -0.00181149081581 0.0780915785203 0.0014978378349
5 2 89616 10.414306 19.173464 3.2460862e-14 4.4040735 30.738247 63.656426 -999 -0.00149011233315 0.0700238712304 0.00122757710707
6 2 89616 7.0597106 11.25714 1.6365103e-14 3.384429 20.781986 53.384834 -999 -0.00111276010324 0.0630976062772 0.000905847246272
7 2 89616 7.1846746 9.9049512 1.3030529e-14 2.4479035 20.210471 49.333492 -999 -0.00063840949186 0.0573006818515 0.000492964557921
8 2 89616 8.5863223 10.680089 1.2050952e-14 2.2057505 23.879449 48.754441 -999 -5.86115514658e-06 0.0526270820453 -7.03683591649e-05
9 2 89616 10.955802 12.494419 1.3378646e-14 2.5740753 30.098472 51.285028 -999 0.000866683498184 0.0491522588709 -0.000861429911113
10 2 89616 14.94429 15.739469 1.7247906e-14 3.3217586 40.27064 59.336288 -999 0.0020670497746 0.0470292416223 -0.00196378858294
11 2 89616 22.628027 20.505359 2.8651217e-14 4.4515293 59.172949 76.646532 -999 0.00372348715623 0.0464311128526 -0.00348463327924
12 2 89616 36.480361 26.832887 6.2005057e-14 5.9400774 93.092949 103.30981 -999 0.00593138011177 0.0475190810705 -0.0055105565663
13 2 89616 58.14584 34.620233 1.3682749e-13 7.7382802 146.89704 145.7298 -999 0.00879091805319 0.0504249074871 -0.0081171346966
14 2 89616 87.798961 43.472988 2.7693083e-13 9.7096436 222.08723 205.40978 -999 0.0123810396406 0.0552285034333 -0.0113652191418
15 2 89616 124.93026 52.748292 5.0613412e-13 11.636598 318.38141 281.22878 -999 0.0167503811715 0.0619464034762 -0.0152830603501
16 2 89616 168.37892 61.534195 8.4215785e-13 13.173131 433.70655 376.75987 -999 0.0219098766137 0.0705271846204 -0.0198585021466
17 2 89616 219.42055 69.90679 1.2939416e-12 13.950679 570.95018 2965.045 -999 0.0278285616386 0.0808317332335 -0.025039042129
18 2 89616 282.78096 96.326114 1.9363317e-12 13.705292 740.76862 25155.7 -999 0.0344273707143 0.0926024616238 -0.0307336055693
19 2 89616 361.90085 162.52741 2.7941097e-12 12.455718 953.56686 53470.237 -999 0.0415902886443 0.105527794014 -0.0368301165202
20 2 89616 430.0847 222.29315 4.672998e-12 11.481834 1133.1447 42076.231 -999 0.0491600652017 0.119475205129 -0.0432007534167
21 2 89616 485.37484 249.94224 7.5284678e-12 13.690764 1275.8963 26337.094 -999 0.0569480752591 0.134094749108 -0.049702827634
22 2 89616 526.33954 255.76956 7.8957399e-12 20.028245 1375.7741 17249.177 -999 0.0647396703006 0.14897901471 -0.0561833214957
23 2 89616 554.64868 248.40707 6.5158073e-12 28.400816 1434.0834 11020.854 -999 0.0723180766122 0.163681402485 -0.0624946530661
24 2 89616 572.97549 229.77967 6.4677376e-12 36.698926 1456.1136 7230.1206 -999 0.0794800101891 0.177714372608 -0.0684983449622
25 2 89616 574.32207 200.80343 7.7760659e-12 42.639183 1418.247 4835.7846 -999 0.0860599806212 0.19067100078 -0.0740827719862
26 2 89616 570.49291 162.78955 1.07092e-11 45.25577 1365.4224 3382.3355 -999 0.0919322571693 0.202057991944 -0.0791501860239
27 2 89616 595.86345 128.55657 1.4536351e-11 43.607797 1518.9907 84950.67 -999 0.0970009474411 0.210707465316 -0.0836382042229
28 2 89616 537.42915 80.381282 1.7726275e-11 38.899179 1290.4998 93239.937 -999 0.101407989578 0.218017465754 -0.087519838917
29 2 89616 492.07588 57.861155 1.8976105e-11 34.193387 1239.9177 135584.65 -999 0.105026249048 0.223199877144 -0.0907937102495
30 2 89616 383.90604 73.226437 1.8450841e-11 31.828553 921.97689 137220.83 -999 0.108045234867 0.227107706361 -0.0934904162805
31 2 89616 284.98371 112.20335 1.5246688e-11 41.33468 717.58086 146577.03 -999 0.110392155597 0.229543099382 -0.0956847799765
32 2 89616 187.2321 107.79053 1.3353668e-11 49.52805 459.51044 132613.62 -999 0.11231799433 0.230782992913 -0.0974372603652
33 2 89616 125.09037 143.88952 8.403518e-12 50.265359 299.90138 118569.98 -999 0.113776983081 0.230958258243 -0.0988214365237
34 2 89616 96.828486 106.16641 1.1062198e-11 54.571276 213.94084 113722.12 -999 0.114950830629 0.230238724925 -0.0999260062857
35 2 89616 108.13831 127.62889 8.9755592e-12 50.897977 237.09072 102883.16 -999 0.115921782254 0.22892612493 -0.10081396779
36 2 89616 109.2743 84.947567 1.4727706e-11 49.369724 242.43949 94029.933 -999 0.116620747864 0.22712347249 -0.101540775234
37 2 89616 134.32614 94.175941 1.0438783e-11 43.336967 321.42085 66969.125 -999 0.117316771941 0.225067972272 -0.102171264276
38 2 89616 127.0291 60.167806 1.2722901e-11 36.271008 299.13844 55491.027 -999 0.117782412039 0.222826578802 -0.102745348568
39 2 89616 147.98255 48.437301 1.0669985e-11 28.425068 365.61417 33468.686 -999 0.118352574766 0.220579188485 -0.103301419234
40 2 89616 124.01445 28.910999 1.1028305e-11 23.657711 300.16267 31253.604 -999 0.118741198166 0.21817821542 -0.103844496825
41 2 89616 78.679979 12.476272 7.0645975e-12 20.661971 184.97111 29700.162 -999 0.119208939061 0.21547059761 -0.104384523494
42 2 89616 69.169366 9.2537351 6.0507617e-12 18.12317 164.80628 38840.835 -999 0.119582509255 0.213036180859 -0.10492489451
43 2 89616 115.93842 41.221509 5.921506e-12 17.553988 312.30764 105744.96 -999 0.120056951851 0.2110466416 -0.105480653776
44 2 89616 97.604563 32.565996 8.9553475e-12 15.345267 259.72526 104522.19 -999 0.120363524637 0.208845580791 -0.106055195278
45 2 89616 127.45473 51.644114 5.1878044e-12 15.470479 357.99828 62268.512 -999 0.120776657504 0.206625750496 -0.106630425467
46 2 89616 105.60635 43.660563 4.4914884e-12 15.511039 293.42302 61028.446 -999 0.121030307714 0.204264692525 -0.107181970266
47 2 89616 92.108308 19.718599 3.0373093e-12 13.54678 247.26756 51138.824 -999 0.121333794468 0.201803753763 -0.10772076074
48 2 89616 95.621139 22.576824 3.884332e-12 14.574253 258.52133 59606.622 -999 0.121474525481 0.199485891766 -0.10825599959
49 2 89616 96.261695 29.408081 1.7516502e-12 16.759969 272.2696 83322.043 -999 0.121698237158 0.197088654754 -0.108786981609
50 2 89616 83.714344 25.814011 3.2727814e-12 20.611605 228.04108 92426.92 -999 0.12158987963 0.19472681406 -0.109199352148
51 2 89616 118.05151 42.024739 2.2880552e-12 24.544635 337.57071 125854.73 -999 0.121319095441 0.192549572903 -0.10935942779
52 2 89616 101.63666 32.486189 3.0554005e-12 26.33634 280.10996 110585.08 -999 0.120563862169 0.190182172876 -0.109258673935
53 2 89616 116.67875 39.021955 1.5534211e-12 30.010705 325.92913 90131.723 -999 0.119787769713 0.187770140081 -0.109009529751
54 2 89616 111.172 37.70757 2.3716173e-12 30.582321 307.93295 105594.78 -999 0.119196830656 0.185196539933 -0.108924187165
55 2 89616 105.76398 26.261522 1.7848047e-12 34.038127 286.85477 111335.95 -999 0.118963473467 0.18247296415 -0.108918937903
56 2 89616 120.29242 39.689144 2.5495772e-12 39.361681 333.45493 153742.49 -999 0.118626471428 0.179971965025 -0.108933904005
57 2 89616 115.75841 28.710821 2.8145451e-12 44.642023 315.53062 117772.21 -999 0.118722336697 0.177269211868 -0.108982387578
58 2 89616 132.49277 43.170126 3.4168899e-12 52.762637 366.60642 130640.36 -999 0.118622194633 0.174795437391 -0.109029692697
59 2 89616 121.219 31.089203 3.1011672e-12 56.294716 325.89648 130269.19 -999 0.118700721368 0.172064504683 -0.109124782992
60 2 89616 138.43701 33.382079 3.6597617e-12 59.072862 371.44598 112980.31 -999 0.118860106427 0.169578084372 -0.109308982905
61 2 89616 150.48532 40.538574 3.7943043e-12 60.860906 406.58818 186800.22 -999 0.119148883192 0.167298468953 -0.109576714733
62 2 89616 146.72384 31.558899 3.9301642e-12 58.503609 384.03599 145102.47 -999 0.119243565736 0.164881845852 -0.10984087123
63 2 89616 158.32664 40.45925 4.6839773e-12 56.667433 415.66179 140868.29 -999 0.118935450236 0.162700718174 -0.109864325716
64 2 89616 149.27784 28.823985 5.6966393e-12 51.926066 378.30224 126558.41 -999 0.117498722527 0.160468103371 -0.109352009427
65 2 89616 159.28949 37.441583 6.2239845e-12 49.704874 420.069 145201.02 -999 0.115041428417 0.15850314409 -0.108180723272
66 2 89616 142.21137 30.726177 6.0192725e-12 49.625981 366.58348 150110.31 -999 0.111338057135 0.156307628902 -0.106454571324
67 2 89616 139.63564 32.910233 5.3125028e-12 51.087523 367.35026 166261.21 -999 0.107115613407 0.154150526225 -0.104537549209
68 2 89616 135.89199 32.473816 4.0945256e-12 53.112169 357.07133 113892.81 -999 0.103076963047 0.151861687024 -0.102904760285
69 2 89616 144.02301 33.599836 3.3820983e-12 55.300021 384.6608 171539.82 -999 0.0995967063008 0.14961751801 -0.101666239121
70 2 89616 140.62222 29.409368 2.6277874e-12 57.334757 366.895 98349.114 -999 0.0963730050033 0.147124933295 -0.100706443145
71 2 89616 147.54156 32.641513 2.7537285e-12 59.582203 388.3108 156705.13 -999 0.0934773624705 0.14473902947 -0.0999221007713
72 2 89616 139.48391 24.286693 2.2552174e-12 60.052292 352.26559 69774.683 -999 0.0907265809253 0.142139946174 -0.0992425355518
73 2 89616 152.4916 30.157517 2.3216921e-12 59.872981 396.80893 105035.37 -999 0.0883038756886 0.139871783635 -0.0986902101932
74 2 89616 149.38797 23.918179 2.6164574e-12 57.682993 379.9543 60991.758 -999 0.0862327555448 0.137491186334 -0.0982953829486
75 2 89616 152.16628 25.406942 3.1134355e-12 55.257398 387.1298 127705.02 -999 0.0847068679288 0.135208027727 -0.0980481241144
76 2 89616 145.37692 22.483601 3.9902792e-12 53.809773 362.14977 101917.32 -999 0.0835253837697 0.132856146992 -0.0978872058356
77 2 89616 147.52857 26.011218 4.3261072e-12 55.160488 375.55789 107035.69 -999 0.0825989729391 0.130745068428 -0.097735864488
78 2 89616 145.64929 27.823655 4.2076008e-12 60.009856 370.35601 119494.68 -999 0.081470125481 0.128650952497 -0.0975151309639
79 2 89616 153.02338 33.1823 4.3671177e-12 69.059482 394.58815 125338.61 -999 0.0797953741073 0.126824675661 -0.0971478091069
80 2 89616 164.15463 44.257824 4.4625141e-12 84.203954 424.29722 104685.35 -999 0.0776309313279 0.125021242438 -0.0966283625625
81 2 89616 186.37431 55.689263 5.3214254e-12 98.289231 486.0929 113238.11 -999 0.0753959244776 0.123460192502 -0.0960082449425
82 2 89616 214.58052 68.059728 6.3629843e-12 111.43501 559.8685 118934.07 -999 0.073321351973 0.122022920531 -0.0953641556671
83 2 89616 246.93331 78.956133 6.9799358e-12 123.38727 644.09607 105773.67 -999 0.0716729269651 0.120681202771 -0.0947474705761
84 2 89616 278.99654 86.44201 7.9283407e-12 130.77311 723.8706 106977.88 -999 0.0700095032351 0.119191079218 -0.0941677496458
85 2 89616 308.65582 88.886298 9.0727405e-12 132.40229 797.28162 100033.99 -999 0.0684291972112 0.117573472151 -0.0935999240803
86 2 89616 332.77387 86.306248 1.0722805e-11 127.87917 855.38769 122398.27 -999 0.0668070880378 0.115739681476 -0.0930106548293
87 2 89616 347.13525 78.39896 1.1751349e-11 116.92321 887.20252 99502.996 -999 0.0651811855544 0.113682001838 -0.0923878260183
88 2 89616 347.58864 66.259946 1.2694817e-11 100.66847 882.43682 122001.3 -999 0.0634277797561 0.111382281326 -0.0917257089684
89 2 89616 331.49091 52.525278 1.2490652e-11 82.226411 835.99725 110927.57 -999 0.0615495674826 0.108862526753 -0.0910252112259
90 2 89616 302.11529 39.518377 1.2600985e-11 62.376098 758.29784 126908.8 -999 0.0592901867161 0.106253007917 -0.0902819420391
91 2 89616 261.53125 26.60008 1.2214178e-11 40.387725 651.50801 130744.71 -999 0.0565736828381 0.103628766617 -0.0894957999011
92 2 89616 211.41533 14.961935 1.1512328e-11 22.586715 519.93635 145547.51 -999 0.0532701921794 0.101158042117 -0.0886658514733
93 2 89616 154.44697 7.919127 1.0120728e-11 18.753646 372.75782 154758.3 -999 0.0495911832469 0.0989644239071 -0.0878016991909
94 2 89616 96.894272 6.9261736 8.2829291e-12 18.838802 230.10513 185940.92 -999 0.0458245506025 0.0971712236345 -0.0869175272044
95 2 89616 48.130913 5.1018043 5.1937167e-12 14.368959 113.30357 166346.26 -999 0.0424030721397 0.0957339898566 -0.0860318459583
96 2 89616 19.238333 5.6658542 3.5968264e-12 8.2275584 47.93896 241868.6 -999 0.0394547721723 0.0946082051452 -0.0851526867077
97 2 89616 11.023825 3.238236 1.6635317e-12 4.5143843 28.360693 168718.37 -999 0.036929658054 0.0937061852677 -0.0842835548758
98 2 89616 7.8733369 5.7140492 3.5581102e-12 3.9194001 20.283634 286742.26 -999 0.034570983027 0.0929028447634 -0.083417811234
99 2 89616 6.9504861 2.8895162 1.3304445e-12 2.6876541 17.561601 168731.55 -999 0.0322225751311 0.0921405989144 -0.0825577615933
100 2 89616 6.698405 5.6881698 4.2399349e-12 3.5660271 15.446752 306883.92 -999 0.0298594532488 0.0913978141063 -0.0817068809132
101 2 89616 6.266281 2.6532695 1.1775697e-12 2.4187627 14.969106 169183.91 -999 0.0274818247896 0.0907094154992 -0.0808710996101
102 2 89616 7.564342 5.4078056 4.5106497e-12 3.5317683 17.082693 306889.3 -999 0.0251406590294 0.0900604432934 -0.0800557300861
103 2 89616 6.2538128 2.4589305 9.9948065e-13 2.3725926 14.471809 168852.56 -999 0.0228370525033 0.0894922928205 -0.079265847386
104 2 89616 8.6047184 5.0578771 4.4580058e-12 3.5124594 20.002245 305574.46 -999 0.0206207374874 0.0889727768653 -0.0785055366138
105 2 89616 6.3455826 2.3125911 8.3948148e-13 2.3770502 14.585606 168564.79 -999 0.018477629889 0.0885412749697 -0.0777791920153
106 2 89616 9.3755338 4.6999304 4.180942e-12 3.4827587 22.450106 303494.11 -999 0.0164576101789 0.0881562328427 -0.0770898183824
107 2 89616 6.4511036 2.2114531 6.99888e-13 2.3863851 14.892225 167945.61 -999 0.0145255341427 0.0878573310151 -0.0764376329257
108 2 89616 9.7676409 4.2933336 3.7634441e-12 3.4571008 23.927604 302117.68 -999 0.0127334034549 0.0876001223759 -0.0758259897218
109 2 89616 6.5662525 2.1521925 5.7886728e-13 2.395865 15.340568 167129.1 -999 0.0110405301005 0.0874233603184 -0.0752547434899
110 2 89616 9.8976901 3.885263 3.2315895e-12 3.44811 24.757181 300099.15 -999 0.00949643226268 0.0872842767851 -0.0747257511068
111 2 89616 6.902746 2.1732821 4.7649491e-13 2.4148796 16.557115 166774.1 -999 0.00805863600834 0.0872166697733 -0.0742398933317
112 2 89616 9.7148396 3.4695097 2.6337638e-12 3.459657 24.561977 298655.5 -999 0.00677478490293 0.0871821763413 -0.0737991205552
113 2 89616 6.8625241 2.1132376 3.9121644e-13 2.4082666 16.504448 166164.33 -999 0.00560674616685 0.0872102516804 -0.0734037143478
114 2 89616 9.3939613 3.9286752 2.007009e-12 3.4997291 24.286603 298500.82 -999 0.00459420498431 0.0872705710788 -0.0730548786517
115 2 89616 7.8950509 4.8304584 3.2418596e-13 2.4320225 20.076843 166911.59 -999 0.0037048471587 0.0873833370048 -0.0727542456466
116 2 89616 10.033361 6.4193592 1.3982193e-12 3.5517171 26.1873 295909.38 -999 0.0029808402051 0.0875257044014 -0.0725050262931
117 2 89616 9.8345318 7.1676779 2.8657599e-13 2.4318169 25.160061 165324.96 -999 0.00239024197747 0.0877095739999 -0.0723083767467
118 2 89616 11.614565 7.8914766 8.5452524e-13 3.5951043 29.944367 294352.99 -999 0.00196736479214 0.0879214374491 -0.0721671281773
119 2 89616 12.347361 7.8857477 2.6921851e-13 2.4267585 31.169151 164644.85 -999 0.00168568083336 0.0881632675084 -0.072083382735
120 2 89616 13.727662 7.6767433 4.6006518e-13 3.6218698 34.574952 293203.05 -999 0.0015740049089 0.0884312362785 -0.0720603527673
121 2 89616 14.737423 6.8885905 2.5771128e-13 2.418595 36.507171 164070.65 -999 0.00161187901307 0.0887180110741 -0.0721008638079
122 2 89616 15.416715 5.9149614 4.1162776e-13 3.628139 37.936491 292211.43 -999 0.00182203888526 0.0890289647632 -0.0722077819845
123 2 89616 15.836075 4.4463023 2.4428912e-13 2.415909 38.491343 163556.26 -999 0.00218634144729 0.0893483722007 -0.0723834465852
124 2 89616 15.15758 3.2366022 5.9935788e-13 3.6112715 36.501702 291338.57 -999 0.00272330771164 0.0896896091348 -0.0726312113867
125 2 89616 14.421945 2.2229631 2.2719453e-13 2.4129177 34.649676 163037.7 -999 0.00341965955515 0.0900301196646 -0.0729544386371
126 2 89616 12.563333 2.2466532 7.6901192e-13 3.5762426 30.171112 290586.9 -999 0.00428891811126 0.0903900301415 -0.0733563459672
127 2 89616 11.416762 2.0884357 2.2975575e-13 2.4132163 27.90056 162565.47 -999 0.00532010602545 0.0907417252379 -0.0738396839391
128 2 89616 9.3100165 2.4232483 8.6383265e-13 3.5216433 23.067492 290038.13 -999 0.00652383625816 0.0911098289642 -0.0744075829223
129 2 89616 8.6969637 2.1161181 2.0487114e-13 2.4193643 22.256107 162104.13 -999 0.00789030377114 0.0914633974359 -0.0750626339996
130 2 89616 7.0240125 2.3541651 8.8102795e-13 3.4547182 18.356375 289335.38 -999 0.00942701144827 0.0918299956666 -0.0758079411707
131 2 89616 7.149927 1.8750158 1.8520924e-13 2.4168521 19.097256 161629.14 -999 0.0111240149198 0.0921773846509 -0.0766454124281
132 2 89616 5.8765689 2.2115837 8.3463932e-13 3.3937274 15.942138 289167.57 -999 0.0129852783789 0.092533960106 -0.0775770565823
133 2 89616 6.3065634 1.6561367 1.6058272e-13 2.4167924 17.212579 161185.95 -999 0.0150047555867 0.09286789763 -0.078605794455
134 2 89616 5.2131931 2.1438485 7.4532372e-13 3.3326611 14.38652 288595.24 -999 0.0171841125243 0.0932066946842 -0.0797330101703
135 2 89616 5.6255764 1.5120938 1.3672074e-13 2.4171598 15.521483 160752.74 -999 0.0195138023437 0.0935207855933 -0.0809596109868
136 2 89616 4.647115 2.1191607 6.330999e-13 3.2845606 12.946374 288290.99 -999 0.0219920345211 0.093835886915 -0.0822856869976
137 2 89616 4.9168556 1.40258 1.1836924e-13 2.4231332 13.676165 160358.4 -999 0.02461217195 0.0941257479916 -0.0837123423783
138 2 89616 4.0424018 2.0999806 5.1489907e-13 3.2472281 11.355384 287946.31 -999 0.027370682849 0.0944129810456 -0.0852394374836
139 2 89616 4.1743764 1.3081236 1.0902306e-13 2.4336153 11.688285 160136.4 -999 0.0302604478266 0.0946757520473 -0.0868668287148
140 2 89616 3.4664295 2.0793741 4.0369905e-13 3.2200563 9.7869819 287673.66 -999 0.0332771088176 0.0949323425197 -0.0885944334982
141 2 89616 3.4622526 1.2319348 1.0951765e-13 2.4408269 9.7202928 159737.78 -999 0.0364154455596 0.095166379761 -0.0904222227649
142 2 89616 2.9238047 2.0577336 3.0923219e-13 3.2040395 8.2551876 287503.52 -999 0.0396686730795 0.0953911831968 -0.0923497087126
143 2 89616 2.8393008 1.1749777 1.1805797e-13 2.453243 7.9240291 159781.91 -999 0.0430315968785 0.0955960031066 -0.0943742908587
144 2 89616 2.4467158 2.0374581 2.3890922e-13 3.1940687 6.8474575 287438.41 -999 0.0464945856489 0.0957885137038 -0.0964950529574
145 2 89616 2.4245128 1.1429669 1.3032595e-13 2.4581987 6.6101365 159305.02 -999 0.0500530583884 0.0959643520769 -0.0987094439818
146 2 89616 2.1294913 2.0239968 1.983601e-13 3.1849814 5.7972813 287157.32 -999 0.0536985110356 0.0961252947851 -0.10101706054
147 2 89616 2.3427843 1.1346654 1.4307144e-13 2.4627405 6.1639726 159092.36 -999 0.057429642914 0.096273946598 -0.103415924139
148 2 89616 2.0310562 2.0181757 1.869026e-13 3.1788353 5.3088705 286999.3 -999 0.0612353644804 0.0964059466589 -0.105904438873
149 2 89616 2.5837596 1.1442383 1.5389451e-13 2.4629817 6.6658433 158811.27 -999 0.0651162393268 0.096530164413 -0.108480531875
150 2 89616 2.1440349 2.0185767 1.9488082e-13 3.1732336 5.4469896 286823.71 -999 0.0690595160711 0.0966364297147 -0.11114233235
151 2 89616 3.0061161 1.1645666 1.6124115e-13 2.4584576 7.7626141 158613.9 -999 0.0730671583054 0.096739348014 -0.113887365129
152 2 89616 2.3916284 2.0226996 2.0988114e-13 3.1674434 6.0395512 286694.69 -999 0.0771253111908 0.0968235498123 -0.116713131417
153 2 89616 3.4668417 1.185258 1.6402617e-13 2.444263 9.0244419 158438.76 -999 0.081237559657 0.096908753414 -0.11961724246
154 2 89616 2.6805767 2.0266276 2.2300969e-13 3.1587437 6.807314 286589.33 -999 0.0853900164124 0.0969751449242 -0.122597341059
155 2 89616 3.8854108 1.2058295 1.6209933e-13 2.428526 10.203851 158327.4 -999 0.0895880316216 0.0970465949724 -0.125651017012
156 2 89616 2.9494265 2.0290095 2.3145445e-13 3.1485447 7.5531708 286523.49 -999 0.0938168689053 0.0970996622703 -0.128775429926
157 2 89616 4.2103052 1.2165006 1.5464979e-13 2.4054119 11.136458 158270.24 -999 0.0980828903922 0.0971613229099 -0.131968040129
158 2 89616 3.1588336 2.0282466 2.3128207e-13 3.1357287 8.1474307 286477.91 -999 0.102371414415 0.0972055827234 -0.135225906653
159 2 89616 4.4256509 1.2213609 1.4260229e-13 2.379079 11.771069 158227.97 -999 0.106689101863 0.0972614192952 -0.138545952478
160 2 89616 3.2904278 2.0244433 2.2219253e-13 3.1181807 8.5261542 286479.03 -999 0.111021552838 0.0973011207825 -0.141925155631
161 2 89616 4.522727 1.2212778 1.2635649e-13 2.3502861 12.076597 158275.38 -999 0.11537539628 0.097354683188 -0.145359873614
162 2 89616 3.345328 2.022018 2.0592447e-13 3.0981324 8.6867591 286522.01 -999 0.119736280368 0.0973936768555 -0.148846691545
163 2 89616 4.5093958 1.220545 1.0686764e-13 2.3192996 12.067399 158348.98 -999 0.124110191006 0.0974480188646 -0.152381358655
164 2 89616 3.3214067 2.0222741 1.8270698e-13 3.0731507 8.6155845 286594.11 -999 0.128482527901 0.097489487938 -0.155959729052
165 2 89616 4.4019837 1.2230784 8.5431722e-14 2.288672 11.783774 158464.48 -999 0.132858873489 0.0975471742703 -0.159576967773
166 2 89616 3.250537 2.0306694 1.549958e-13 3.0464488 8.3916734 286693.29 -999 0.137223138965 0.0975935759556 -0.163227318402
167 2 89616 4.2350777 1.2347506 6.4135435e-14 2.2599884 11.308524 158602.17 -999 0.141580382819 0.0976561389816 -0.166905457229
168 2 89616 3.1818224 2.0483019 1.2534361e-13 3.0179354 8.1158212 286807.34 -999 0.145907667124 0.0977073466475 -0.170599558212
169 2 89616 4.0526564 1.256828 4.6507223e-14 2.2356406 10.742268 158757.09 -999 0.150224021919 0.0977756927074 -0.174315562098
170 2 89616 3.0941674 2.0763446 9.8389181e-14 2.9906787 7.7891208 286927.78 -999 0.154508314883 0.0978357798218 -0.178042419658
171 2 89616 3.8599663 1.288611 3.8997085e-14 2.2141507 10.129054 158908.48 -999 0.158763084815 0.0979109388886 -0.181773433322
172 2 89616 3.0341038 2.1117891 8.1146567e-14 2.964657 7.5233359 287041.48 -999 0.162974090113 0.0979786706877 -0.185501603417
173 2 89616 3.6967454 1.3281697 4.5249774e-14 2.1982574 9.5770149 159052.29 -999 0.167140184872 0.0980597374108 -0.189218173526
174 2 89616 3.033464 2.1531571 8.1640502e-14 2.9415823 7.41766 287137.73 -999 0.17124873236 0.0981337083686 -0.192916498265
175 2 89616 3.5954131 1.3737243 5.8588143e-14 2.1894179 9.1807341 159180.71 -999 0.175299952687 0.0982193606919 -0.196589442807
176 2 89616 3.0952283 2.1965893 9.8428908e-14 2.9224128 7.500612 287210.1 -999 0.179281611576 0.0982978544738 -0.200229615483
177 2 89616 3.5691234 1.4185935 7.2697449e-14 2.1832923 8.9860707 159280.16 -999 0.183191872887 0.0983860744828 -0.203829259131
178 2 89616 3.2246429 2.2392778 1.2240935e-13 2.9078791 7.7921114 287251.48 -999 0.187021104276 0.0984669219518 -0.20738178977
179 2 89616 3.6191708 1.4599196 8.4805263e-14 2.1825295 9.01449 159349.89 -999 0.190767058545 0.0985551545356 -0.210879679391
180 2 89616 3.4061035 2.2782989 1.4708731e-13 2.8990241 8.2495368 287219.43 -999 0.194421632802 0.0986353317502 -0.214316747929
181 2 89616 3.7359131 1.4958305 9.3976038e-14 2.1860033 9.2429532 159349.23 -999 0.197982151635 0.0987205464824 -0.21768602142
182 2 89616 3.6168848 2.3099304 1.6887278e-13 2.8935146 8.8048545 287176.99 -999 0.201444072065 0.0987970185653 -0.220983022734
183 2 89616 3.8844602 1.5245518 9.9710832e-14 2.1942663 9.5879298 159353.75 -999 0.204804009081 0.0988760819926 -0.22420117603
184 2 89616 3.8361821 2.3334861 1.8596795e-13 2.8928448 9.3956169 287078.15 -999 0.208056996962 0.0989452282706 -0.227335231955
185 2 89616 4.0505037 1.5443422 1.0219463e-13 2.2046817 9.996125 159306.58 -999 0.211201796837 0.0990147088324 -0.230380657348
186 2 89616 4.0559655 2.3471975 1.9739164e-13 2.8954754 9.9839822 286942.77 -999 0.214234742214 0.0990729132207 -0.233332814778
187 2 89616 4.2091669 1.5527255 1.0141528e-13 2.2159369 10.397252 159231.07 -999 0.21715793274 0.0991295366875 -0.23618993017
188 2 89616 4.2104789 2.3511998 2.0282635e-13 2.9013446 10.432152 286766.71 -999 0.219969213665 0.0991737687178 -0.238948132841
189 2 89616 4.3082811 1.5516602 9.7891104e-14 2.2290657 10.677806 159126.02 -999 0.22266782643 0.0992143614436 -0.241604836216
190 2 89616 4.3160454 2.3452794 2.0242883e-13 2.9094752 10.759499 286557.29 -999 0.225253637738 0.0992411650147 -0.244157301158
191 2 89616 4.368808 1.5399488 9.2241399e-14 2.2424226 10.86269 158997.3 -999 0.227726235514 0.0992627617154 -0.246603829712
192 2 89616 4.3737479 2.3299396 1.9668601e-13 2.9196293 10.959841 286318.59 -999 0.230089227268 0.099269131134 -0.248943805365
193 2 89616 4.3827666 1.5194384 8.4593469e-14 2.2564751 10.927514 158849.92 -999 0.232341106069 0.0992688621718 -0.251175373847
194 2 89616 4.3830169 2.3058108 1.8601393e-13 2.931343 11.027795 286056.83 -999 0.234486551425 0.0992522432182 -0.253298526314
195 2 89616 4.3494721 1.490582 7.5838901e-14 2.2701999 10.866238 158688.54 -999 0.236525257445 0.0992276393869 -0.255312729816
196 2 89616 4.3338496 2.2739775 1.7133715e-13 2.9440613 10.941068 285778.02 -999 0.23846131567 0.0991855403234 -0.257217676843
197 2 89616 4.263725 1.4553415 6.6650678e-14 2.2831945 10.667159 158518.71 -999 0.240294399171 0.099134340781 -0.259013237357
198 2 89616 4.2476571 2.235993 1.5318051e-13 2.9571814 10.748056 285488.6 -999 0.242029994999 0.0990644798595 -0.260699921572
199 2 89616 4.1540419 1.4150517 5.7543963e-14 2.2949818 10.397359 158344.78 -999 0.243667357134 0.0989846655561 -0.262278035755
200 2 89616 4.1146153 2.1938223 1.3229614e-13 2.9701791 10.429488 285194.87 -999 0.245212407705 0.0988854703253 -0.263748577249
201 2 89616 3.9365186 1.2962405 2.9075276e-12 2.489768 9.8574204 158175.36 -999 0.246617861524 0.0987665954422 -0.26505942135
202 2 89616 3.9208665 1.931849 3.1952019e-12 3.2217384 9.8294747 285304.98 -999 0.247783647364 0.0986281847148 -0.266141325629
203 2 89616 4.5229283 1.764085 1.7087068e-12 2.5374927 11.214892 158364.97 -999 0.248961052469 0.0984582758477 -0.267200856928
204 2 89616 5.1376406 2.561038 1.3767919e-12 3.2039143 12.647123 285315.45 -999 0.250188674862 0.0982230454327 -0.268279481353
205 2 89616 7.8136533 2.9313131 9.2084773e-13 2.7039792 20.067674 158103.52 -999 0.2513782837 0.0979470288142 -0.269292068025
206 2 89616 8.543886 3.5737696 9.249268e-13 3.41655 21.773758 285200.81 -999 0.252450040087 0.0975902270063 -0.270170664374
207 2 89616 12.972388 4.0021529 8.1617821e-13 2.9375163 34.136206 157822.36 -999 0.253411967795 0.0971991614117 -0.270905336506
208 2 89616 12.562296 4.3072826 1.3022824e-12 3.7990198 32.819147 284967.64 -999 0.254269677882 0.0967087195432 -0.27151916475
209 2 89616 17.544588 4.2632807 1.6488132e-12 3.051184 46.702363 157400.96 -999 0.25507539244 0.0961897285817 -0.272030079226
210 2 89616 15.195283 4.4389222 2.5461444e-12 4.1390298 40.351346 284235.93 -999 0.255793810519 0.0955709457995 -0.272440854934
211 2 89616 19.390291 3.5482919 3.334757e-12 2.9088754 52.107749 156661.68 -999 0.25647407804 0.0949426926058 -0.272751201681
212 2 89616 15.455964 4.0223549 4.5307794e-12 4.2111069 41.721863 283904.41 -999 0.257064676906 0.0942384602222 -0.272965540444
213 2 89616 17.938705 2.3939856 5.042391e-12 2.5750283 48.713645 157197.55 -999 0.257644738491 0.093547179681 -0.273099478842
214 2 89616 14.0658 3.2617006 6.8394517e-12 3.9889746 38.490238 284952.96 -999 0.258153087256 0.0928153872852 -0.273162049412
215 2 89616 14.44118 1.7795106 5.8996027e-12 2.2756467 39.612143 158975.64 -999 0.25867137502 0.0921084703994 -0.273165607496
216 2 89616 11.959946 2.4317178 8.8066347e-12 3.6299719 32.989091 287712.45 -999 0.259130198191 0.0913926461735 -0.273115828951
217 2 89616 10.703846 1.7000064 5.4723043e-12 2.160549 29.565359 161632.43 -999 0.259604824339 0.0906982533311 -0.273021037825
218 2 89616 9.5124026 1.9091026 9.8384723e-12 3.312548 26.391726 291428.43 -999 0.260028595547 0.0900094143253 -0.272884964949
219 2 89616 7.8029946 1.4981378 4.3416755e-12 2.1722488 21.616969 163791.1 -999 0.260461669592 0.0893280063804 -0.272710559269
220 2 89616 7.2082711 1.8356719 9.5698881e-12 3.1188316 20.117516 294882.44 -999 0.260845118671 0.0886474392975 -0.272499334163
221 2 89616 6.0326794 1.3203488 3.2838231e-12 2.26232 16.764781 164978.42 -999 0.261226581886 0.0879595095808 -0.272253422572
222 2 89616 5.6493932 1.8866631 8.115247e-12 3.0670476 15.771077 297138.38 -999 0.261557087665 0.087261628188 -0.271974047277
223 2 89616 5.2169246 1.2176015 2.6140318e-12 2.3630712 14.506729 165134.07 -999 0.261872419417 0.0865499933967 -0.27166358427
224 2 89616 4.8841817 1.8682879 6.0890687e-12 3.1089908 13.50161 298777.72 -999 0.262135468939 0.08582262414 -0.271324771983