VARIABLES = "f(Hz)" "<p(Pa^2)>"
ZONE T="M = 0.73 - a = 2.50"
 0.000000000E+00 3.514069141E+04
 1.250000000E+00 8.279056250E+04
 2.500000000E+00 1.382774062E+05
 3.750000000E+00 1.222785000E+05
 5.000000000E+00 8.194484375E+04
 6.250000000E+00 8.451128125E+04
 7.500000000E+00 7.972658594E+04
 8.750000000E+00 8.038827344E+04
 1.000000000E+01 7.962807031E+04
 1.125000000E+01 6.396520703E+04
 1.250000000E+01 5.844374219E+04
 1.375000000E+01 4.221528516E+04
 1.500000000E+01 5.112280859E+04
 1.625000000E+01 5.344826172E+04
 1.750000000E+01 4.549140625E+04
 1.875000000E+01 4.022622656E+04
 2.000000000E+01 4.246307422E+04
 2.125000000E+01 3.623587891E+04
 2.250000000E+01 3.306592188E+04
 2.375000000E+01 2.845871289E+04
 2.500000000E+01 3.093617969E+04
 2.625000000E+01 2.671633008E+04
 2.750000000E+01 2.899192188E+04
 2.875000000E+01 2.978436328E+04
 3.000000000E+01 2.671664062E+04
 3.125000000E+01 2.738482227E+04
 3.250000000E+01 3.237225977E+04
 3.375000000E+01 3.139058398E+04
 3.500000000E+01 2.594235156E+04
 3.625000000E+01 2.069731055E+04
 3.750000000E+01 1.919041992E+04
 3.875000000E+01 2.079145898E+04
 4.000000000E+01 2.022692188E+04
 4.125000000E+01 1.775145117E+04
 4.250000000E+01 1.608633789E+04
 4.375000000E+01 1.926444141E+04
 4.500000000E+01 1.525349121E+04
 4.625000000E+01 1.485422363E+04
 4.750000000E+01 1.768839453E+04
 4.875000000E+01 1.947186523E+04
 5.000000000E+01 1.919117969E+04
 5.125000000E+01 1.624746094E+04
 5.250000000E+01 1.496297266E+04
 5.375000000E+01 1.300006738E+04
 5.500000000E+01 1.234933594E+04
 5.625000000E+01 1.291128125E+04
 5.750000000E+01 1.452582129E+04
 5.875000000E+01 1.352503613E+04
 6.000000000E+01 1.058021973E+04
 6.125000000E+01 9.856679688E+03
 6.250000000E+01 8.896454102E+03
 6.375000000E+01 8.279129883E+03
 6.500000000E+01 1.000961719E+04
 6.625000000E+01 1.198614160E+04
 6.750000000E+01 1.127707129E+04
 6.875000000E+01 1.035731250E+04
 7.000000000E+01 9.184427734E+03
 7.125000000E+01 6.741846191E+03
 7.250000000E+01 7.165291992E+03
 7.375000000E+01 8.011837402E+03
 7.500000000E+01 8.077016602E+03
 7.625000000E+01 7.869711426E+03
 7.750000000E+01 6.959180664E+03
 7.875000000E+01 7.308258789E+03
 8.000000000E+01 6.355733398E+03
 8.125000000E+01 6.269439941E+03
 8.250000000E+01 5.173078613E+03
 8.375000000E+01 4.132742676E+03
 8.500000000E+01 5.355686035E+03
 8.625000000E+01 5.510085938E+03
 8.750000000E+01 5.061806152E+03
 8.875000000E+01 5.833809570E+03
 9.000000000E+01 5.463059570E+03
 9.125000000E+01 3.613117432E+03
 9.250000000E+01 3.448296143E+03
 9.375000000E+01 3.679694824E+03
 9.500000000E+01 3.493204834E+03
 9.625000000E+01 3.058243652E+03
 9.750000000E+01 3.164743652E+03
 9.875000000E+01 3.014434082E+03
 1.000000000E+02 3.657524902E+03
 1.012500000E+02 3.304440430E+03
 1.025000000E+02 3.427622314E+03
 1.037500000E+02 3.651702393E+03
 1.050000000E+02 3.397797363E+03
 1.062500000E+02 3.281818848E+03
 1.075000000E+02 3.031350830E+03
 1.087500000E+02 2.669807617E+03
 1.100000000E+02 3.035060791E+03
 1.112500000E+02 3.179490967E+03
 1.125000000E+02 2.376963623E+03
 1.137500000E+02 2.669606445E+03
 1.150000000E+02 2.734011230E+03
 1.162500000E+02 2.263287598E+03
 1.175000000E+02 2.265690918E+03
 1.187500000E+02 2.376847656E+03
 1.200000000E+02 2.550762451E+03
 1.212500000E+02 2.510263672E+03
 1.225000000E+02 2.411595947E+03
 1.237500000E+02 3.187032471E+03
 1.250000000E+02 3.441116211E+03
 1.262500000E+02 2.492677002E+03
 1.275000000E+02 2.048145996E+03
 1.287500000E+02 1.822750366E+03
 1.300000000E+02 2.233886719E+03
 1.312500000E+02 2.194639893E+03
 1.325000000E+02 2.856324707E+03
 1.337500000E+02 2.717343994E+03
 1.350000000E+02 2.314470947E+03
 1.362500000E+02 2.549210205E+03
 1.375000000E+02 2.560541016E+03
 1.387500000E+02 2.226119629E+03
 1.400000000E+02 1.710842896E+03
 1.412500000E+02 1.794623169E+03
 1.425000000E+02 2.505448730E+03
 1.437500000E+02 2.378416260E+03
 1.450000000E+02 2.168860352E+03
 1.462500000E+02 1.901049316E+03
 1.475000000E+02 1.980206299E+03
 1.487500000E+02 2.089626221E+03
 1.500000000E+02 2.238414062E+03
 1.512500000E+02 2.088463623E+03
 1.525000000E+02 1.645308472E+03
 1.537500000E+02 1.817177124E+03
 1.550000000E+02 1.803816772E+03
 1.562500000E+02 1.445696777E+03
 1.575000000E+02 1.705612305E+03
 1.587500000E+02 1.521863770E+03
 1.600000000E+02 1.535245728E+03
 1.612500000E+02 1.612061157E+03
 1.625000000E+02 1.307019531E+03
 1.637500000E+02 1.449507080E+03
 1.650000000E+02 1.332590088E+03
 1.662500000E+02 1.535198730E+03
 1.675000000E+02 1.480607056E+03
 1.687500000E+02 1.692300171E+03
 1.700000000E+02 1.807731445E+03
 1.712500000E+02 1.393695435E+03
 1.725000000E+02 1.396150757E+03
 1.737500000E+02 1.525010254E+03
 1.750000000E+02 1.699178345E+03
 1.762500000E+02 1.815455566E+03
 1.775000000E+02 1.752403809E+03
 1.787500000E+02 1.441542480E+03
 1.800000000E+02 1.506088989E+03
 1.812500000E+02 1.528048828E+03
 1.825000000E+02 1.712576172E+03
 1.837500000E+02 1.653102295E+03
 1.850000000E+02 1.729890381E+03
 1.862500000E+02 1.566163208E+03
 1.875000000E+02 1.617892700E+03
 1.887500000E+02 1.520699341E+03
 1.900000000E+02 1.279107544E+03
 1.912500000E+02 1.455803223E+03
 1.925000000E+02 1.806620850E+03
 1.937500000E+02 1.601044312E+03
 1.950000000E+02 1.608521729E+03
 1.962500000E+02 1.749148804E+03
 1.975000000E+02 1.529454590E+03
 1.987500000E+02 1.563426636E+03
 2.000000000E+02 1.881607178E+03
 2.012500000E+02 1.663721924E+03
 2.025000000E+02 1.578678711E+03
 2.037500000E+02 1.468946777E+03
 2.050000000E+02 1.235440796E+03
 2.062500000E+02 1.231401855E+03
 2.075000000E+02 1.431127808E+03
 2.087500000E+02 1.612468262E+03
 2.100000000E+02 1.439795532E+03
 2.112500000E+02 1.254459229E+03
 2.125000000E+02 1.303076050E+03
 2.137500000E+02 1.275301758E+03
 2.150000000E+02 1.453101807E+03
 2.162500000E+02 1.801204712E+03
 2.175000000E+02 1.960195190E+03
 2.187500000E+02 1.714099609E+03
 2.200000000E+02 2.046262939E+03
 2.212500000E+02 1.696320923E+03
 2.225000000E+02 1.415960571E+03
 2.237500000E+02 1.335184937E+03
 2.250000000E+02 1.651033203E+03
 2.262500000E+02 1.471289551E+03
 2.275000000E+02 1.306083740E+03
 2.287500000E+02 1.011636475E+03
 2.300000000E+02 9.452949829E+02
 2.312500000E+02 1.443133667E+03
 2.325000000E+02 1.425447266E+03
 2.337500000E+02 1.301810059E+03
 2.350000000E+02 1.397957886E+03
 2.362500000E+02 1.293157837E+03
 2.375000000E+02 1.306487549E+03
 2.387500000E+02 1.570947754E+03
 2.400000000E+02 1.539892090E+03
 2.412500000E+02 1.390254028E+03
 2.425000000E+02 1.375377930E+03
 2.437500000E+02 1.630757202E+03
 2.450000000E+02 1.837883911E+03
 2.462500000E+02 1.439055542E+03
 2.475000000E+02 1.280600830E+03
 2.487500000E+02 2.103357910E+03
 2.500000000E+02 1.644038696E+03
 2.512500000E+02 1.396300537E+03
 2.525000000E+02 1.329102783E+03
 2.537500000E+02 1.086364868E+03
 2.550000000E+02 1.489722412E+03
 2.562500000E+02 1.503033447E+03
 2.575000000E+02 1.467949707E+03
 2.587500000E+02 1.538052979E+03
 2.600000000E+02 1.344374512E+03
 2.612500000E+02 1.472869995E+03
 2.625000000E+02 1.355127563E+03
 2.637500000E+02 1.476883911E+03
 2.650000000E+02 1.421292603E+03
 2.662500000E+02 1.219614380E+03
 2.675000000E+02 1.417995483E+03
 2.687500000E+02 1.819656494E+03
 2.700000000E+02 1.816726318E+03
 2.712500000E+02 1.554338013E+03
 2.725000000E+02 1.452190308E+03
 2.737500000E+02 1.837218750E+03
 2.750000000E+02 2.192973389E+03
 2.762500000E+02 1.937359009E+03
 2.775000000E+02 1.518028809E+03
 2.787500000E+02 1.468795288E+03
 2.800000000E+02 1.448620361E+03
 2.812500000E+02 1.689326782E+03
 2.825000000E+02 1.619970947E+03
 2.837500000E+02 1.209309570E+03
 2.850000000E+02 1.345461792E+03
 2.862500000E+02 1.535546997E+03
 2.875000000E+02 1.621461792E+03
 2.887500000E+02 1.669469238E+03
 2.900000000E+02 1.844989014E+03
 2.912500000E+02 1.624596680E+03
 2.925000000E+02 1.420075317E+03
 2.937500000E+02 1.597105591E+03
 2.950000000E+02 1.408619873E+03
 2.962500000E+02 1.369097168E+03
 2.975000000E+02 1.704295532E+03
 2.987500000E+02 1.812413696E+03
 3.000000000E+02 1.773276733E+03
 3.012500000E+02 1.435054199E+03
 3.025000000E+02 1.069135986E+03
 3.037500000E+02 1.022434143E+03
 3.050000000E+02 9.668847046E+02
 3.062500000E+02 9.283378906E+02
 3.075000000E+02 1.198931030E+03
 3.087500000E+02 1.343963135E+03
 3.100000000E+02 1.088387695E+03
 3.112500000E+02 1.099038696E+03
 3.125000000E+02 9.386022339E+02
 3.137500000E+02 9.796495361E+02
 3.150000000E+02 9.255356445E+02
 3.162500000E+02 1.057320679E+03
 3.175000000E+02 9.519010010E+02
 3.187500000E+02 8.998541870E+02
 3.200000000E+02 1.136666138E+03
 3.212500000E+02 1.057710205E+03
 3.225000000E+02 1.316057373E+03
 3.237500000E+02 1.072895386E+03
 3.250000000E+02 8.471918945E+02
 3.262500000E+02 9.749027710E+02
 3.275000000E+02 1.042379150E+03
 3.287500000E+02 9.814852905E+02
 3.300000000E+02 9.322209473E+02
 3.312500000E+02 9.688997192E+02
 3.325000000E+02 8.804689941E+02
 3.337500000E+02 8.928233643E+02
 3.350000000E+02 1.206636963E+03
 3.362500000E+02 1.358583862E+03
 3.375000000E+02 1.408392700E+03
 3.387500000E+02 1.266272827E+03
 3.400000000E+02 1.121499756E+03
 3.412500000E+02 1.010419556E+03
 3.425000000E+02 1.216359375E+03
 3.437500000E+02 1.289757690E+03
 3.450000000E+02 1.192963135E+03
 3.462500000E+02 1.138169434E+03
 3.475000000E+02 1.143896973E+03
 3.487500000E+02 1.226075684E+03
 3.500000000E+02 1.527592407E+03
 3.512500000E+02 1.222618164E+03
 3.525000000E+02 9.568599854E+02
 3.537500000E+02 1.039380493E+03
 3.550000000E+02 1.026171753E+03
 3.562500000E+02 9.260952148E+02
 3.575000000E+02 1.066886353E+03
 3.587500000E+02 9.990780029E+02
 3.600000000E+02 9.370467529E+02
 3.612500000E+02 1.031003906E+03
 3.625000000E+02 9.913366699E+02
 3.637500000E+02 9.678740234E+02
 3.650000000E+02 1.088978638E+03
 3.662500000E+02 1.419052002E+03
 3.675000000E+02 1.335298218E+03
 3.687500000E+02 1.253262329E+03
 3.700000000E+02 1.405807739E+03
 3.712500000E+02 1.461639893E+03
 3.725000000E+02 1.428090210E+03
 3.737500000E+02 1.469005981E+03
 3.750000000E+02 1.408247803E+03
 3.762500000E+02 1.457890747E+03
 3.775000000E+02 1.125432495E+03
 3.787500000E+02 9.599240723E+02
 3.800000000E+02 9.388601685E+02
 3.812500000E+02 1.296349121E+03
 3.825000000E+02 1.405153809E+03
 3.837500000E+02 1.124174561E+03
 3.850000000E+02 9.779093018E+02
 3.862500000E+02 1.239460205E+03
 3.875000000E+02 1.313330688E+03
 3.887500000E+02 1.094957153E+03
 3.900000000E+02 9.704743042E+02
 3.912500000E+02 9.980213013E+02
 3.925000000E+02 9.468687134E+02
 3.937500000E+02 8.669299927E+02
 3.950000000E+02 8.441628418E+02
 3.962500000E+02 9.770081787E+02
 3.975000000E+02 1.092905273E+03
 3.987500000E+02 1.120885986E+03
 4.000000000E+02 1.315310181E+03
 4.012500000E+02 1.399758423E+03
 4.025000000E+02 1.505328613E+03
 4.037500000E+02 1.387683594E+03
 4.050000000E+02 1.487599976E+03
 4.062500000E+02 1.051474121E+03
 4.075000000E+02 9.990803833E+02
 4.087500000E+02 1.308373535E+03
 4.100000000E+02 1.471740356E+03
 4.112500000E+02 1.601712891E+03
 4.125000000E+02 1.255981689E+03
 4.137500000E+02 1.220790161E+03
 4.150000000E+02 1.032160522E+03
 4.162500000E+02 1.000265137E+03
 4.175000000E+02 1.104324707E+03
 4.187500000E+02 1.030984497E+03
 4.200000000E+02 1.165115723E+03
 4.212500000E+02 1.299696289E+03
 4.225000000E+02 1.215192627E+03
 4.237500000E+02 1.204793701E+03
 4.250000000E+02 9.152370605E+02
 4.262500000E+02 1.007976807E+03
 4.275000000E+02 1.107024780E+03
 4.287500000E+02 1.200488892E+03
 4.300000000E+02 1.041964966E+03
 4.312500000E+02 9.115844727E+02
 4.325000000E+02 9.322778320E+02
 4.337500000E+02 9.883326416E+02
 4.350000000E+02 1.122227905E+03
 4.362500000E+02 1.214858154E+03
 4.375000000E+02 1.117879395E+03
 4.387500000E+02 1.269917236E+03
 4.400000000E+02 1.119876587E+03
 4.412500000E+02 9.814111938E+02
 4.425000000E+02 1.015629883E+03
 4.437500000E+02 9.053075562E+02
 4.450000000E+02 1.088932129E+03
 4.462500000E+02 1.066808472E+03
 4.475000000E+02 1.236198730E+03
 4.487500000E+02 1.245314575E+03
 4.500000000E+02 1.067968262E+03
 4.512500000E+02 7.875621948E+02
 4.525000000E+02 8.775008545E+02
 4.537500000E+02 1.068368896E+03
 4.550000000E+02 1.079180786E+03
 4.562500000E+02 8.820980225E+02
 4.575000000E+02 9.436330566E+02
 4.587500000E+02 8.266310425E+02
 4.600000000E+02 8.652822266E+02
 4.612500000E+02 6.641554565E+02
 4.625000000E+02 6.568532715E+02
 4.637500000E+02 7.560791016E+02
 4.650000000E+02 1.161711670E+03
 4.662500000E+02 1.305808472E+03
 4.675000000E+02 1.070871582E+03
 4.687500000E+02 1.178763428E+03
 4.700000000E+02 1.005277222E+03
 4.712500000E+02 9.035023804E+02
 4.725000000E+02 1.022786072E+03
 4.737500000E+02 1.141067017E+03
 4.750000000E+02 8.548907471E+02
 4.762500000E+02 8.016444092E+02
 4.775000000E+02 1.052363403E+03
 4.787500000E+02 8.738417969E+02
 4.800000000E+02 9.287395630E+02
 4.812500000E+02 1.083008057E+03
 4.825000000E+02 9.737955933E+02
 4.837500000E+02 1.003105896E+03
 4.850000000E+02 9.428076782E+02
 4.862500000E+02 1.004364563E+03
 4.875000000E+02 1.074168579E+03
 4.887500000E+02 1.122787720E+03
 4.900000000E+02 1.096639526E+03
 4.912500000E+02 1.080758911E+03
 4.925000000E+02 1.061401489E+03
 4.937500000E+02 1.141161133E+03
 4.950000000E+02 1.210850464E+03
 4.962500000E+02 1.177148071E+03
 4.975000000E+02 1.276762817E+03
 4.987500000E+02 9.916779785E+02
 5.000000000E+02 9.811019897E+02
 5.012500000E+02 1.273810669E+03
 5.025000000E+02 1.754707397E+03
 5.037500000E+02 1.295862793E+03
 5.050000000E+02 9.412398682E+02
 5.062500000E+02 1.008343567E+03
 5.075000000E+02 1.265930420E+03
 5.087500000E+02 1.054654175E+03
 5.100000000E+02 1.190533081E+03
 5.112500000E+02 1.274254028E+03
 5.125000000E+02 1.341398315E+03
 5.137500000E+02 1.117598999E+03
 5.150000000E+02 1.286266235E+03
 5.162500000E+02 1.022625183E+03
 5.175000000E+02 1.080854492E+03
 5.187500000E+02 1.185488525E+03
 5.200000000E+02 1.203916748E+03
 5.212500000E+02 1.294291870E+03
 5.225000000E+02 1.160325806E+03
 5.237500000E+02 8.416759644E+02
 5.250000000E+02 7.600715332E+02
 5.262500000E+02 8.297961426E+02
 5.275000000E+02 8.623260498E+02
 5.287500000E+02 9.197091675E+02
 5.300000000E+02 1.045980469E+03
 5.312500000E+02 8.994107666E+02
 5.325000000E+02 8.003126831E+02
 5.337500000E+02 1.014020142E+03
 5.350000000E+02 1.120226074E+03
 5.362500000E+02 1.132946045E+03
 5.375000000E+02 1.216001221E+03
 5.387500000E+02 1.111107910E+03
 5.400000000E+02 8.205665894E+02
 5.412500000E+02 8.547457886E+02
 5.425000000E+02 9.869470825E+02
 5.437500000E+02 9.462136230E+02
 5.450000000E+02 8.660198975E+02
 5.462500000E+02 9.011263428E+02
 5.475000000E+02 1.200260498E+03
 5.487500000E+02 1.078296631E+03
 5.500000000E+02 8.651484985E+02
 5.512500000E+02 8.262860718E+02
 5.525000000E+02 1.011376038E+03
 5.537500000E+02 1.001829651E+03
 5.550000000E+02 9.190175781E+02
 5.562500000E+02 8.416757202E+02
 5.575000000E+02 9.264898071E+02
 5.587500000E+02 1.056197266E+03
 5.600000000E+02 1.079485352E+03
 5.612500000E+02 9.760695801E+02
 5.625000000E+02 1.175946045E+03
 5.637500000E+02 1.345142456E+03
 5.650000000E+02 1.393114624E+03
 5.662500000E+02 1.021670349E+03
 5.675000000E+02 9.432156982E+02
 5.687500000E+02 1.110659058E+03
 5.700000000E+02 1.175589478E+03
 5.712500000E+02 1.717359619E+03
 5.725000000E+02 1.972153198E+03
 5.737500000E+02 1.204675171E+03
 5.750000000E+02 1.042383423E+03
 5.762500000E+02 1.079787842E+03
 5.775000000E+02 1.232273438E+03
 5.787500000E+02 1.074182983E+03
 5.800000000E+02 1.205512207E+03
 5.812500000E+02 1.554880249E+03
 5.825000000E+02 1.544909790E+03
 5.837500000E+02 1.851667603E+03
 5.850000000E+02 1.795729126E+03
 5.862500000E+02 1.579461182E+03
 5.875000000E+02 1.807026367E+03
 5.887500000E+02 2.410754150E+03
 5.900000000E+02 2.943232666E+03
 5.912500000E+02 3.516994873E+03
 5.925000000E+02 3.756330811E+03
 5.937500000E+02 4.467387207E+03
 5.950000000E+02 5.624318848E+03
 5.962500000E+02 1.242188672E+05
 5.975000000E+02 2.326959062E+05
 5.987500000E+02 3.210420117E+04
 6.000000000E+02 3.844774902E+03
 6.012500000E+02 3.513344971E+03
 6.025000000E+02 3.249555420E+03
 6.037500000E+02 3.526464844E+03
 6.050000000E+02 2.305463379E+03
 6.062500000E+02 1.860912109E+03
 6.075000000E+02 2.072794189E+03
 6.087500000E+02 1.910206787E+03
 6.100000000E+02 1.918261353E+03
 6.112500000E+02 1.392556641E+03
 6.125000000E+02 1.404265991E+03
 6.137500000E+02 1.464295288E+03
 6.150000000E+02 1.352792603E+03
 6.162500000E+02 1.278620972E+03
 6.175000000E+02 1.207823608E+03
 6.187500000E+02 1.310925049E+03
 6.200000000E+02 1.232405518E+03
 6.212500000E+02 1.465953613E+03
 6.225000000E+02 1.803372681E+03
 6.237500000E+02 1.324206299E+03
 6.250000000E+02 1.169608643E+03
 6.262500000E+02 1.359408813E+03
 6.275000000E+02 1.164886719E+03
 6.287500000E+02 1.359267456E+03
 6.300000000E+02 1.247325562E+03
 6.312500000E+02 1.293946899E+03
 6.325000000E+02 1.361816772E+03
 6.337500000E+02 1.411041382E+03
 6.350000000E+02 1.904319946E+03
 6.362500000E+02 1.472266113E+03
 6.375000000E+02 1.661880493E+03
 6.387500000E+02 1.598968628E+03
 6.400000000E+02 2.048281250E+03
 6.412500000E+02 2.320404785E+03
 6.425000000E+02 2.040090454E+03
 6.437500000E+02 1.761582397E+03
 6.450000000E+02 1.525636841E+03
 6.462500000E+02 2.465518311E+03
 6.475000000E+02 2.120873047E+03
 6.487500000E+02 1.961057983E+03
 6.500000000E+02 2.256006348E+03
 6.512500000E+02 1.859844604E+03
 6.525000000E+02 2.240515137E+03
 6.537500000E+02 2.346776123E+03
 6.550000000E+02 1.804837891E+03
 6.562500000E+02 1.609837769E+03
 6.575000000E+02 1.918995361E+03
 6.587500000E+02 1.726792725E+03
 6.600000000E+02 1.958871582E+03
 6.612500000E+02 2.174455566E+03
 6.625000000E+02 2.099937988E+03
 6.637500000E+02 2.095310547E+03
 6.650000000E+02 1.912466553E+03
 6.662500000E+02 1.767079224E+03
 6.675000000E+02 1.706604004E+03
 6.687500000E+02 1.702530762E+03
 6.700000000E+02 2.167695801E+03
 6.712500000E+02 2.762675781E+03
 6.725000000E+02 2.334772217E+03
 6.737500000E+02 1.740707520E+03
 6.750000000E+02 1.895920166E+03
 6.762500000E+02 2.215222656E+03
 6.775000000E+02 1.961937988E+03
 6.787500000E+02 2.108464844E+03
 6.800000000E+02 1.949823608E+03
 6.812500000E+02 1.482353394E+03
 6.825000000E+02 1.317165649E+03
 6.837500000E+02 1.345223999E+03
 6.850000000E+02 1.749699829E+03
 6.862500000E+02 1.623846558E+03
 6.875000000E+02 1.361854980E+03
 6.887500000E+02 1.499178467E+03
 6.900000000E+02 1.505253418E+03
 6.912500000E+02 1.507614380E+03
 6.925000000E+02 1.245122681E+03
 6.937500000E+02 1.124282471E+03
 6.950000000E+02 1.256402954E+03
 6.962500000E+02 1.664803101E+03
 6.975000000E+02 1.361154419E+03
 6.987500000E+02 1.173951904E+03
 7.000000000E+02 1.534767212E+03
 7.012500000E+02 1.674742065E+03
 7.025000000E+02 1.426918335E+03
 7.037500000E+02 1.305219238E+03
 7.050000000E+02 1.383171997E+03
 7.062500000E+02 1.117151245E+03
 7.075000000E+02 1.247414062E+03
 7.087500000E+02 1.263980591E+03
 7.100000000E+02 1.462325928E+03
 7.112500000E+02 1.700188354E+03
 7.125000000E+02 1.579067627E+03
 7.137500000E+02 1.580813843E+03
 7.150000000E+02 1.394015991E+03
 7.162500000E+02 1.236630127E+03
 7.175000000E+02 1.521417847E+03
 7.187500000E+02 1.411123291E+03
 7.200000000E+02 1.062451050E+03
 7.212500000E+02 1.120846802E+03
 7.225000000E+02 1.357713501E+03
 7.237500000E+02 1.318214722E+03
 7.250000000E+02 1.321584717E+03
 7.262500000E+02 1.443518066E+03
 7.275000000E+02 1.252812134E+03
 7.287500000E+02 1.512909668E+03
 7.300000000E+02 1.278135742E+03
 7.312500000E+02 1.342346558E+03
 7.325000000E+02 1.446282471E+03
 7.337500000E+02 1.438321045E+03
 7.350000000E+02 1.601847534E+03
 7.362500000E+02 1.245900269E+03
 7.375000000E+02 1.172532104E+03
 7.387500000E+02 1.386475708E+03
 7.400000000E+02 1.467141846E+03
 7.412500000E+02 1.279869629E+03
 7.425000000E+02 1.085862671E+03
 7.437500000E+02 1.075683472E+03
 7.450000000E+02 1.081612061E+03
 7.462500000E+02 1.355386230E+03
 7.475000000E+02 1.517657593E+03
 7.487500000E+02 1.355679199E+03
 7.500000000E+02 1.330879395E+03
 7.512500000E+02 1.364167480E+03
 7.525000000E+02 1.469283813E+03
 7.537500000E+02 1.425347168E+03
 7.550000000E+02 1.291818115E+03
 7.562500000E+02 1.176157349E+03
 7.575000000E+02 1.248704346E+03
 7.587500000E+02 1.337945557E+03
 7.600000000E+02 1.427591187E+03
 7.612500000E+02 1.430976440E+03
 7.625000000E+02 1.391625122E+03
 7.637500000E+02 1.153895142E+03
 7.650000000E+02 1.162549194E+03
 7.662500000E+02 1.271300415E+03
 7.675000000E+02 1.320203491E+03
 7.687500000E+02 1.412400391E+03
 7.700000000E+02 1.562279785E+03
 7.712500000E+02 1.599842163E+03
 7.725000000E+02 1.414522095E+03
 7.737500000E+02 1.536561768E+03
 7.750000000E+02 1.512574829E+03
 7.762500000E+02 1.408833252E+03
 7.775000000E+02 1.366031006E+03
 7.787500000E+02 1.348105225E+03
 7.800000000E+02 1.675639526E+03
 7.812500000E+02 1.741699219E+03
 7.825000000E+02 1.799476196E+03
 7.837500000E+02 1.880603882E+03
 7.850000000E+02 1.740213135E+03
 7.862500000E+02 1.446689087E+03
 7.875000000E+02 1.404982666E+03
 7.887500000E+02 1.466713257E+03
 7.900000000E+02 1.507607788E+03
 7.912500000E+02 1.752254517E+03
 7.925000000E+02 1.632112915E+03
 7.937500000E+02 1.415777344E+03
 7.950000000E+02 1.534467041E+03
 7.962500000E+02 1.431636963E+03
 7.975000000E+02 1.451557007E+03
 7.987500000E+02 1.095718018E+03
 8.000000000E+02 1.328914917E+03
 8.012500000E+02 1.636468384E+03
 8.025000000E+02 1.537980591E+03
 8.037500000E+02 1.191805542E+03
 8.050000000E+02 1.163219849E+03
 8.062500000E+02 1.225076660E+03
 8.075000000E+02 1.505401733E+03
 8.087500000E+02 1.391418579E+03
 8.100000000E+02 1.409942871E+03
 8.112500000E+02 1.732913696E+03
 8.125000000E+02 1.553529297E+03
 8.137500000E+02 1.529196411E+03
 8.150000000E+02 1.420609985E+03
 8.162500000E+02 1.362822876E+03
 8.175000000E+02 1.283521606E+03
 8.187500000E+02 1.290555908E+03
 8.200000000E+02 1.608947021E+03
 8.212500000E+02 1.785672729E+03
 8.225000000E+02 1.939508789E+03
 8.237500000E+02 1.652308960E+03
 8.250000000E+02 1.515565430E+03
 8.262500000E+02 1.831842896E+03
 8.275000000E+02 1.693390747E+03
 8.287500000E+02 1.889392090E+03
 8.300000000E+02 1.979124268E+03
 8.312500000E+02 2.171118652E+03
 8.325000000E+02 2.072142578E+03
 8.337500000E+02 1.567553101E+03
 8.350000000E+02 1.593149414E+03
 8.362500000E+02 1.938856079E+03
 8.375000000E+02 1.736079712E+03
 8.387500000E+02 1.652569824E+03
 8.400000000E+02 2.033854736E+03
 8.412500000E+02 1.921873901E+03
 8.425000000E+02 1.815459839E+03
 8.437500000E+02 1.717169189E+03
 8.450000000E+02 1.694836792E+03
 8.462500000E+02 1.601493164E+03
 8.475000000E+02 1.602120361E+03
 8.487500000E+02 1.685404175E+03
 8.500000000E+02 1.810215698E+03
 8.512500000E+02 2.387754150E+03
 8.525000000E+02 2.448781738E+03
 8.537500000E+02 1.863664795E+03
 8.550000000E+02 2.263138184E+03
 8.562500000E+02 2.166178711E+03
 8.575000000E+02 1.560271606E+03
 8.587500000E+02 1.673127930E+03
 8.600000000E+02 2.135809326E+03
 8.612500000E+02 2.180770264E+03
 8.625000000E+02 2.346969971E+03
 8.637500000E+02 1.784772095E+03
 8.650000000E+02 1.544622559E+03
 8.662500000E+02 2.118031250E+03
 8.675000000E+02 2.459534424E+03
 8.687500000E+02 2.580144043E+03
 8.700000000E+02 2.988823242E+03
 8.712500000E+02 3.014606201E+03
 8.725000000E+02 2.353099365E+03
 8.737500000E+02 1.881939453E+03
 8.750000000E+02 2.030795898E+03
 8.762500000E+02 1.945788330E+03
 8.775000000E+02 1.620731934E+03
 8.787500000E+02 1.730563110E+03
 8.800000000E+02 1.568007446E+03
 8.812500000E+02 1.467978149E+03
 8.825000000E+02 1.775273560E+03
 8.837500000E+02 2.079691406E+03
 8.850000000E+02 1.757398682E+03
 8.862500000E+02 1.888609741E+03
 8.875000000E+02 2.194114258E+03
 8.887500000E+02 2.370206299E+03
 8.900000000E+02 2.391232666E+03
 8.912500000E+02 2.156055908E+03
 8.925000000E+02 1.903684937E+03
 8.937500000E+02 1.988708008E+03
 8.950000000E+02 2.029488647E+03
 8.962500000E+02 2.088827637E+03
 8.975000000E+02 1.573657959E+03
 8.987500000E+02 1.701066406E+03
 9.000000000E+02 2.007590576E+03
 9.012500000E+02 2.389566162E+03
 9.025000000E+02 2.292835693E+03
 9.037500000E+02 2.186209717E+03
 9.050000000E+02 2.144631592E+03
 9.062500000E+02 1.769261230E+03
 9.075000000E+02 1.973114258E+03
 9.087500000E+02 1.538182373E+03
 9.100000000E+02 1.689030518E+03
 9.112500000E+02 1.611725464E+03
 9.125000000E+02 1.660527588E+03
 9.137500000E+02 1.938658203E+03
 9.150000000E+02 1.616261719E+03
 9.162500000E+02 1.516722412E+03
 9.175000000E+02 1.820659912E+03
 9.187500000E+02 1.592883911E+03
 9.200000000E+02 1.642688354E+03
 9.212500000E+02 2.034196777E+03
 9.225000000E+02 1.704449707E+03
 9.237500000E+02 1.236029785E+03
 9.250000000E+02 1.163866699E+03
 9.262500000E+02 1.439507690E+03
 9.275000000E+02 1.593733887E+03
 9.287500000E+02 1.671186646E+03
 9.300000000E+02 1.461342651E+03
 9.312500000E+02 1.345207642E+03
 9.325000000E+02 1.297678589E+03
 9.337500000E+02 1.318379028E+03
 9.350000000E+02 1.625490234E+03
 9.362500000E+02 1.578252441E+03
 9.375000000E+02 1.350894897E+03
 9.387500000E+02 1.447414307E+03
 9.400000000E+02 1.573189087E+03
 9.412500000E+02 1.572830322E+03
 9.425000000E+02 1.710301392E+03
 9.437500000E+02 1.508624634E+03
 9.450000000E+02 1.692840454E+03
 9.462500000E+02 1.673306641E+03
 9.475000000E+02 1.399354248E+03
 9.487500000E+02 1.174356812E+03
 9.500000000E+02 1.298527100E+03
 9.512500000E+02 1.406141724E+03
 9.525000000E+02 1.818502441E+03
 9.537500000E+02 1.566095581E+03
 9.550000000E+02 1.347343018E+03
 9.562500000E+02 1.306688721E+03
 9.575000000E+02 1.332712402E+03
 9.587500000E+02 1.450956787E+03
 9.600000000E+02 1.762109497E+03
 9.612500000E+02 1.851540405E+03
 9.625000000E+02 1.737595581E+03
 9.637500000E+02 1.556075439E+03
 9.650000000E+02 1.723672974E+03
 9.662500000E+02 2.056030762E+03
 9.675000000E+02 1.871292114E+03
 9.687500000E+02 1.611754517E+03
 9.700000000E+02 1.588912842E+03
 9.712500000E+02 1.834371704E+03
 9.725000000E+02 1.663787720E+03
 9.737500000E+02 1.570302246E+03
 9.750000000E+02 1.568165161E+03
 9.762500000E+02 1.601073486E+03
 9.775000000E+02 1.380930908E+03
 9.787500000E+02 1.401963257E+03
 9.800000000E+02 1.636766724E+03
 9.812500000E+02 1.648079834E+03
 9.825000000E+02 1.696442139E+03
 9.837500000E+02 1.895458618E+03
 9.850000000E+02 1.321569458E+03
 9.862500000E+02 1.170844238E+03
 9.875000000E+02 1.324739136E+03
 9.887500000E+02 1.255661621E+03
 9.900000000E+02 1.152753296E+03
 9.912500000E+02 1.072901733E+03
 9.925000000E+02 1.246212402E+03
 9.937500000E+02 1.220178345E+03
 9.950000000E+02 1.357070190E+03
 9.962500000E+02 1.466418823E+03
 9.975000000E+02 1.294514526E+03
 9.987500000E+02 1.379880737E+03
 1.000000000E+03 1.703679810E+03
 1.001250000E+03 1.507162598E+03
 1.002500000E+03 1.278250732E+03
 1.003750000E+03 1.447117310E+03
 1.005000000E+03 1.317627930E+03
 1.006250000E+03 1.349426147E+03
 1.007500000E+03 1.317517944E+03
 1.008750000E+03 1.249666748E+03
 1.010000000E+03 1.318427490E+03
 1.011250000E+03 1.486920410E+03
 1.012500000E+03 1.488542603E+03
 1.013750000E+03 1.528487427E+03
 1.015000000E+03 1.770047852E+03
 1.016250000E+03 1.494097656E+03
 1.017500000E+03 1.209900391E+03
 1.018750000E+03 1.311181519E+03
 1.020000000E+03 1.429856079E+03
 1.021250000E+03 1.165235229E+03
 1.022500000E+03 1.514320068E+03
 1.023750000E+03 1.714327271E+03
 1.025000000E+03 1.480545898E+03
 1.026250000E+03 1.807457764E+03
 1.027500000E+03 1.729593628E+03
 1.028750000E+03 1.576147949E+03
 1.030000000E+03 1.590511475E+03
 1.031250000E+03 1.794643555E+03
 1.032500000E+03 1.975977173E+03
 1.033750000E+03 1.639106445E+03
 1.035000000E+03 1.687454346E+03
 1.036250000E+03 1.789867798E+03
 1.037500000E+03 1.992998535E+03
 1.038750000E+03 2.048958984E+03
 1.040000000E+03 1.876944214E+03
 1.041250000E+03 1.808617188E+03
 1.042500000E+03 1.657272095E+03
 1.043750000E+03 1.924374878E+03
 1.045000000E+03 2.061089111E+03
 1.046250000E+03 1.888686401E+03
 1.047500000E+03 2.007103149E+03
 1.048750000E+03 1.521156738E+03
 1.050000000E+03 1.659733887E+03
 1.051250000E+03 1.763169800E+03
 1.052500000E+03 1.501236572E+03
 1.053750000E+03 1.412239868E+03
 1.055000000E+03 1.876337280E+03
 1.056250000E+03 1.994703857E+03
 1.057500000E+03 2.035744019E+03
 1.058750000E+03 2.037903076E+03
 1.060000000E+03 1.617500732E+03
 1.061250000E+03 1.611140625E+03
 1.062500000E+03 1.595460938E+03
 1.063750000E+03 1.578228760E+03
 1.065000000E+03 1.436981812E+03
 1.066250000E+03 1.851059448E+03
 1.067500000E+03 1.963741699E+03
 1.068750000E+03 1.829853271E+03
 1.070000000E+03 1.987450073E+03
 1.071250000E+03 2.255596924E+03
 1.072500000E+03 2.062089111E+03
 1.073750000E+03 1.903245483E+03
 1.075000000E+03 1.589811646E+03
 1.076250000E+03 1.823655029E+03
 1.077500000E+03 1.697368286E+03
 1.078750000E+03 1.400257202E+03
 1.080000000E+03 1.358001953E+03
 1.081250000E+03 1.380254517E+03
 1.082500000E+03 1.539424805E+03
 1.083750000E+03 1.622945557E+03
 1.085000000E+03 1.737870361E+03
 1.086250000E+03 1.687967896E+03
 1.087500000E+03 1.389485107E+03
 1.088750000E+03 1.788167236E+03
 1.090000000E+03 1.989308716E+03
 1.091250000E+03 1.756582397E+03
 1.092500000E+03 1.844551636E+03
 1.093750000E+03 1.848249634E+03
 1.095000000E+03 1.760573608E+03
 1.096250000E+03 2.160421387E+03
 1.097500000E+03 2.174815430E+03
 1.098750000E+03 1.596278442E+03
 1.100000000E+03 1.721086426E+03
 1.101250000E+03 1.543832397E+03
 1.102500000E+03 1.760975220E+03
 1.103750000E+03 1.620341309E+03
 1.105000000E+03 1.588076904E+03
 1.106250000E+03 1.460959717E+03
 1.107500000E+03 1.721990234E+03
 1.108750000E+03 1.907202637E+03
 1.110000000E+03 1.702322632E+03
 1.111250000E+03 1.718397827E+03
 1.112500000E+03 1.867943970E+03
 1.113750000E+03 1.926160889E+03
 1.115000000E+03 1.739748535E+03
 1.116250000E+03 1.646086548E+03
 1.117500000E+03 1.501526367E+03
 1.118750000E+03 1.338850464E+03
 1.120000000E+03 1.236796753E+03
 1.121250000E+03 1.576993042E+03
 1.122500000E+03 1.474900879E+03
 1.123750000E+03 1.502345947E+03
 1.125000000E+03 1.349601318E+03
 1.126250000E+03 1.459121094E+03
 1.127500000E+03 1.509393677E+03
 1.128750000E+03 1.688427368E+03
 1.130000000E+03 1.435551392E+03
 1.131250000E+03 1.309021851E+03
 1.132500000E+03 1.601664673E+03