TITLE     = "TAU_SAneg2nd_DLR_c"
VARIABLES = "mach"
"alpha"
"re_lambda"
ZONE T="Contour line: C=0eom"
 STRANDID=0, SOLUTIONTIME=0
 Nodes=21, Elements=20, ZONETYPE=FELineSeg
 DATAPACKING=POINT
 DT=(SINGLE SINGLE SINGLE )
 7.099999785E-01 4.562040806E+00 0.000000000E+00
 7.089276314E-01 4.599999905E+00 0.000000000E+00
 6.999999881E-01 4.784539700E+00 0.000000000E+00
 7.123413086E-01 4.599999905E+00 4.336808690E-19
 6.996029019E-01 4.800000191E+00 0.000000000E+00
 7.156481743E-01 4.800000191E+00 -1.734723476E-18
 6.939967871E-01 5.000000000E+00 0.000000000E+00
 6.899999976E-01 5.104410172E+00 1.734723476E-18
 7.149932384E-01 5.000000000E+00 0.000000000E+00
 6.876640916E-01 5.199999809E+00 0.000000000E+00
 7.146188021E-01 5.199999809E+00 0.000000000E+00
 6.809213758E-01 5.400000095E+00 0.000000000E+00
 6.800000072E-01 5.422700405E+00 0.000000000E+00
 7.143656611E-01 5.400000095E+00 0.000000000E+00
 6.747630239E-01 5.599999905E+00 0.000000000E+00
 6.700000167E-01 5.732143879E+00 0.000000000E+00
 7.128402591E-01 5.599999905E+00 1.734723476E-18
 6.678399444E-01 5.800000191E+00 0.000000000E+00
 7.122932673E-01 5.800000191E+00 -1.734723476E-18
 6.602603793E-01 6.000000000E+00 2.168404345E-18
 7.104983926E-01 6.000000000E+00 8.673617380E-19
 20 18
 18 16
 16 15
 15 13
 13 12
 12 10
 10 8
 8 7
 7 5
 5 3
 3 2
 2 1
 1 4
 4 6
 6 9
 9 11
 11 14
 14 17
 17 19
 19 21
