TITLE     = "TAU_SAneg2nd_DPW8_L2"
VARIABLES = "mach"
"alpha"
"re_lambda"
ZONE T="Contour line: C=0eom"
 STRANDID=0, SOLUTIONTIME=0
 Nodes=25, Elements=24, ZONETYPE=FELineSeg
 DATAPACKING=POINT
 DT=(SINGLE SINGLE SINGLE )
 7.200000286E-01 4.213042736E+00 0.000000000E+00
 6.999999881E-01 4.554858685E+00 0.000000000E+00
 7.107660770E-01 4.400000095E+00 0.000000000E+00
 7.099999785E-01 4.405073643E+00 0.000000000E+00
 7.213456631E-01 4.400000095E+00 8.673617380E-19
 6.984407902E-01 4.599999905E+00 0.000000000E+00
 7.214825153E-01 4.599999905E+00 -8.673617380E-19
 6.969355345E-01 4.800000191E+00 0.000000000E+00
 7.213442922E-01 4.800000191E+00 8.673617380E-19
 6.915375590E-01 5.000000000E+00 0.000000000E+00
 6.899999976E-01 5.033196926E+00 0.000000000E+00
 7.206989527E-01 5.000000000E+00 1.734723476E-18
 6.844314933E-01 5.199999809E+00 0.000000000E+00
 6.800000072E-01 5.359501839E+00 0.000000000E+00
 7.207723260E-01 5.199999809E+00 -1.301042607E-18
 7.200000286E-01 5.302536011E+00 0.000000000E+00
 6.788284183E-01 5.400000095E+00 0.000000000E+00
 7.190216780E-01 5.400000095E+00 0.000000000E+00
 6.722513437E-01 5.599999905E+00 0.000000000E+00
 6.700000167E-01 5.659158707E+00 0.000000000E+00
 7.188099623E-01 5.599999905E+00 0.000000000E+00
 6.646942496E-01 5.800000191E+00 0.000000000E+00
 6.600000262E-01 5.914081097E+00 3.469446952E-18
 7.180749178E-01 5.800000191E+00 0.000000000E+00
 7.175563574E-01 6.000000000E+00 -3.469446952E-18
 23 22
 22 20
 20 19
 19 17
 17 14
 14 13
 13 11
 11 10
 10 8
 8 6
 6 2
 2 4
 4 3
 3 1
 1 5
 5 7
 7 9
 9 12
 12 15
 15 16
 16 18
 18 21
 21 24
 24 25
