TITLE = "005.04"

VARIABLES = "X" "Y" "Z" "X/C" "CP_AVG" "CP_RMS" "CF_AVG" "CF_RMS"

DATASETAUXDATA ParticipantID   = "005"
DATASETAUXDATA SubmissionDate  = "01-02-2025"
DATASETAUXDATA Name            = "Jeffrey A. Housman"
DATASETAUXDATA Email           = "jeffrey.a.housman@nasa.gov"
DATASETAUXDATA Institution     = "NASA Ames Research Center"
DATASETAUXDATA SolverName      = "LAVA Curvilinear"
DATASETAUXDATA BasicAlgorithm  = "ZDES Mode 2 (2020)"
DATASETAUXDATA TurbulenceModel = "SAneg"
DATASETAUXDATA GridId          = "Multiblock"
DATASETAUXDATA Notes           = "Upwind/Centered Blending Method 2"

ZONE T = "005.04 - ALPHA 1.36 - GRID 1 - WING SECTION 1"
AUXDATA GridLevel       = "1"
AUXDATA Mach            = "0.73"
AUXDATA Re              = "3.0e+6"
AUXDATA Alpha           = "1.3600e+00"
AUXDATA Tstatic         = "271.0"
AUXDATA CLtotal         = "7.42760616e-01"
AUXDATA Eta             = "0.000"
AUXDATA Deltat          = "9.5456895063539926e-7"
AUXDATA CtuStart        = "80"
AUXDATA CtuAvg          = "120"
AUXDATA GridFileName    = "ONERA-Deck_Grids.REV00"
AUXDATA Misc            = "Grid Extruded 0.2 chord with 145 points in span"
2.3000e-01 2.4286e-17 -5.7430e-04 1.0000e+00 1.01299362e-01 7.38916824e-02 999 999
2.2954e-01 2.4286e-17 -5.2166e-04 9.9801e-01 8.44708225e-02 6.51063802e-02 999 999
2.2909e-01 2.4286e-17 -4.6999e-04 9.9602e-01 1.32519331e-01 3.64765905e-02 999 999
2.2863e-01 2.4286e-17 -4.1920e-04 9.9403e-01 1.60466815e-01 2.77239308e-02 999 999
2.2817e-01 2.4286e-17 -3.6926e-04 9.9204e-01 1.79066777e-01 2.14481040e-02 999 999
2.2771e-01 2.4286e-17 -3.2016e-04 9.9004e-01 1.91650053e-01 1.75950706e-02 999 999
2.2725e-01 2.4286e-17 -2.7185e-04 9.8805e-01 2.03612774e-01 1.56228482e-02 999 999
2.2679e-01 2.4286e-17 -2.2431e-04 9.8605e-01 2.12802405e-01 1.28576587e-02 999 999
2.2633e-01 2.4286e-17 -1.7752e-04 9.8405e-01 2.21584978e-01 1.22215847e-02 999 999
2.2587e-01 2.4286e-17 -1.3145e-04 9.8204e-01 2.29332871e-01 9.97449994e-03 999 999
2.2541e-01 2.4286e-17 -8.6103e-05 9.8004e-01 2.36330885e-01 9.92288302e-03 999 999
2.2495e-01 2.4286e-17 -4.1469e-05 9.7803e-01 2.43148407e-01 8.07869055e-03 999 999
2.2449e-01 2.4286e-17 2.4490e-06 9.7602e-01 2.49084202e-01 8.13518574e-03 999 999
2.2402e-01 2.4286e-17 4.5650e-05 9.7401e-01 2.55178634e-01 6.66313748e-03 999 999
2.2356e-01 2.4286e-17 8.8135e-05 9.7200e-01 2.60346156e-01 6.75277587e-03 999 999
2.2310e-01 2.4286e-17 1.2990e-04 9.6999e-01 2.65877876e-01 5.56671708e-03 999 999
2.2263e-01 2.4286e-17 1.7096e-04 9.6797e-01 2.72712179e-01 5.80890789e-03 999 999
2.2217e-01 2.4286e-17 2.1129e-04 9.6595e-01 2.79730590e-01 4.71078528e-03 999 999
2.2170e-01 2.4286e-17 2.5091e-04 9.6393e-01 2.84338981e-01 3.98466318e-03 999 999
2.2124e-01 2.4286e-17 2.8982e-04 9.6191e-01 2.88235455e-01 3.94464752e-03 999 999
2.2077e-01 2.4286e-17 3.2801e-04 9.5989e-01 2.92451447e-01 3.38817277e-03 999 999
2.2031e-01 2.4286e-17 3.6549e-04 9.5786e-01 2.96114872e-01 3.30960057e-03 999 999
2.1984e-01 2.4286e-17 4.0225e-04 9.5583e-01 2.99989622e-01 2.88786961e-03 999 999
2.1938e-01 2.4286e-17 4.3830e-04 9.5381e-01 3.03459885e-01 2.78833196e-03 999 999
2.1891e-01 2.4286e-17 4.7364e-04 9.5178e-01 3.07056922e-01 2.46391907e-03 999 999
2.1844e-01 2.4286e-17 5.0826e-04 9.4974e-01 3.10357757e-01 2.35609307e-03 999 999
2.1797e-01 2.4286e-17 5.4215e-04 9.4771e-01 3.13715318e-01 2.10302153e-03 999 999
2.1750e-01 2.4286e-17 5.7531e-04 9.4567e-01 3.16848126e-01 1.99871282e-03 999 999
2.1704e-01 2.4286e-17 6.0773e-04 9.4364e-01 3.19993510e-01 1.79790754e-03 999 999
2.1657e-01 2.4286e-17 6.3939e-04 9.4160e-01 3.22960817e-01 1.70204938e-03 999 999
2.1610e-01 2.4286e-17 6.7029e-04 9.3956e-01 3.25912608e-01 1.53993977e-03 999 999
2.1563e-01 2.4286e-17 7.0041e-04 9.3751e-01 3.28720484e-01 1.45496334e-03 999 999
2.1516e-01 2.4286e-17 7.2975e-04 9.3547e-01 3.31496139e-01 1.32413795e-03 999 999
2.1469e-01 2.4286e-17 7.5829e-04 9.3342e-01 3.34151419e-01 1.24928813e-03 999 999
2.1422e-01 2.4286e-17 7.8603e-04 9.3138e-01 3.36761886e-01 1.14192320e-03 999 999
2.1375e-01 2.4286e-17 8.1295e-04 9.2933e-01 3.39269266e-01 1.07635419e-03 999 999
2.1327e-01 2.4286e-17 8.3905e-04 9.2728e-01 3.41725332e-01 9.87790103e-04 999 999
2.1280e-01 2.4286e-17 8.6431e-04 9.2522e-01 3.44092302e-01 9.31455759e-04 999 999
2.1233e-01 2.4286e-17 8.8873e-04 9.2317e-01 3.46403605e-01 8.57372237e-04 999 999
2.1186e-01 2.4286e-17 9.1229e-04 9.2112e-01 3.48635872e-01 8.06165053e-04 999 999
2.1138e-01 2.4286e-17 9.3499e-04 9.1906e-01 3.50810454e-01 7.44004656e-04 999 999
2.1091e-01 2.4286e-17 9.5681e-04 9.1700e-01 3.52915041e-01 6.99678519e-04 999 999
2.1044e-01 2.4286e-17 9.7774e-04 9.1494e-01 3.54960971e-01 6.47702262e-04 999 999
2.0996e-01 2.4286e-17 9.9778e-04 9.1288e-01 3.56941023e-01 6.07710643e-04 999 999
2.0949e-01 2.4286e-17 1.0169e-03 9.1081e-01 3.58858391e-01 5.62004971e-04 999 999
2.0901e-01 2.4286e-17 1.0351e-03 9.0875e-01 3.60711228e-01 5.26630335e-04 999 999
2.0854e-01 2.4286e-17 1.0523e-03 9.0668e-01 3.62498908e-01 4.87550878e-04 999 999
2.0806e-01 2.4286e-17 1.0686e-03 9.0462e-01 3.64222783e-01 4.57140196e-04 999 999
2.0759e-01 2.4286e-17 1.0839e-03 9.0255e-01 3.65880204e-01 4.22255507e-04 999 999
2.0711e-01 2.4286e-17 1.0982e-03 9.0048e-01 3.67473504e-01 3.94446841e-04 999 999
2.0663e-01 2.4286e-17 1.1115e-03 8.9840e-01 3.68999277e-01 3.64732670e-04 999 999
2.0616e-01 2.4286e-17 1.1238e-03 8.9633e-01 3.70459123e-01 3.40029649e-04 999 999
2.0568e-01 2.4286e-17 1.1350e-03 8.9425e-01 3.71851144e-01 3.15297391e-04 999 999
2.0520e-01 2.4286e-17 1.1452e-03 8.9218e-01 3.73177373e-01 2.93153982e-04 999 999
2.0472e-01 2.4286e-17 1.1543e-03 8.9010e-01 3.74438115e-01 2.69561709e-04 999 999
2.0424e-01 2.4286e-17 1.1624e-03 8.8802e-01 3.75632078e-01 2.52879051e-04 999 999
2.0377e-01 2.4286e-17 1.1693e-03 8.8594e-01 3.76763138e-01 2.29576778e-04 999 999
2.0329e-01 2.4286e-17 1.1752e-03 8.8386e-01 3.77824950e-01 2.18287210e-04 999 999
2.0281e-01 2.4286e-17 1.1799e-03 8.8178e-01 3.78826813e-01 1.97607863e-04 999 999
2.0233e-01 2.4286e-17 1.1835e-03 8.7969e-01 3.79756436e-01 1.84053159e-04 999 999
2.0185e-01 2.4286e-17 1.1859e-03 8.7761e-01 3.80628307e-01 1.73289688e-04 999 999
2.0137e-01 2.4286e-17 1.1872e-03 8.7552e-01 3.81425479e-01 1.53295933e-04 999 999
2.0089e-01 2.4286e-17 1.1874e-03 8.7343e-01 3.82166075e-01 1.51281604e-04 999 999
2.0041e-01 2.4286e-17 1.1863e-03 8.7134e-01 3.82829339e-01 1.33063352e-04 999 999
1.9993e-01 2.4286e-17 1.1841e-03 8.6925e-01 3.83437491e-01 1.24963655e-04 999 999
1.9945e-01 2.4286e-17 1.1807e-03 8.6716e-01 3.83963665e-01 1.22731750e-04 999 999
1.9897e-01 2.4286e-17 1.1761e-03 8.6507e-01 3.84437550e-01 1.01496122e-04 999 999
1.9848e-01 2.4286e-17 1.1702e-03 8.6297e-01 3.84822517e-01 1.10279618e-04 999 999
1.9800e-01 2.4286e-17 1.1631e-03 8.6088e-01 3.85160106e-01 9.15665601e-05 999 999
1.9752e-01 2.4286e-17 1.1548e-03 8.5878e-01 3.85408658e-01 9.11260343e-05 999 999
1.9704e-01 2.4286e-17 1.1452e-03 8.5668e-01 3.85611529e-01 8.68956207e-05 999 999
1.9655e-01 2.4286e-17 1.1344e-03 8.5459e-01 3.85731784e-01 7.72180139e-05 999 999
1.9607e-01 2.4286e-17 1.1223e-03 8.5249e-01 3.85803153e-01 7.73997936e-05 999 999
1.9559e-01 2.4286e-17 1.1090e-03 8.5039e-01 3.85802592e-01 6.90833042e-05 999 999
1.9511e-01 2.4286e-17 1.0944e-03 8.4828e-01 3.85729445e-01 6.57326493e-05 999 999
1.9462e-01 2.4286e-17 1.0786e-03 8.4618e-01 3.85605977e-01 6.15191014e-05 999 999
1.9414e-01 2.4286e-17 1.0615e-03 8.4408e-01 3.85404721e-01 5.96730140e-05 999 999
1.9365e-01 2.4286e-17 1.0431e-03 8.4197e-01 3.85148028e-01 5.53469360e-05 999 999
1.9317e-01 2.4286e-17 1.0235e-03 8.3987e-01 3.84814153e-01 5.41348401e-05 999 999
1.9269e-01 2.4286e-17 1.0026e-03 8.3776e-01 3.84421526e-01 5.00506610e-05 999 999
1.9220e-01 2.4286e-17 9.8044e-04 8.3566e-01 3.83958236e-01 4.91913000e-05 999 999
1.9172e-01 2.4286e-17 9.5701e-04 8.3355e-01 3.83434759e-01 4.56191962e-05 999 999
1.9123e-01 2.4286e-17 9.3231e-04 8.3144e-01 3.82846460e-01 4.49147569e-05 999 999
1.9075e-01 2.4286e-17 9.0636e-04 8.2933e-01 3.82196143e-01 4.18718978e-05 999 999
1.9026e-01 2.4286e-17 8.7916e-04 8.2722e-01 3.81485104e-01 4.10756043e-05 999 999
1.8978e-01 2.4286e-17 8.5072e-04 8.2511e-01 3.80710461e-01 3.86200732e-05 999 999
1.8929e-01 2.4286e-17 8.2103e-04 8.2300e-01 3.79877692e-01 3.78459916e-05 999 999
1.8880e-01 2.4286e-17 7.9012e-04 8.2089e-01 3.78980425e-01 3.62742276e-05 999 999
1.8832e-01 2.4286e-17 7.5797e-04 8.1878e-01 3.78026246e-01 3.53026854e-05 999 999
1.8783e-01 2.4286e-17 7.2461e-04 8.1666e-01 3.77006495e-01 3.43654273e-05 999 999
1.8735e-01 2.4286e-17 6.9003e-04 8.1455e-01 3.75930633e-01 3.31557171e-05 999 999
1.8686e-01 2.4286e-17 6.5426e-04 8.1243e-01 3.74791303e-01 3.30001266e-05 999 999
1.8637e-01 2.4286e-17 6.1729e-04 8.1032e-01 3.73598384e-01 3.18837273e-05 999 999
1.8589e-01 2.4286e-17 5.7915e-04 8.0820e-01 3.72343705e-01 3.21641254e-05 999 999
1.8540e-01 2.4286e-17 5.3984e-04 8.0609e-01 3.71035932e-01 3.10270466e-05 999 999
1.8491e-01 2.4286e-17 4.9938e-04 8.0397e-01 3.69667048e-01 3.14640913e-05 999 999
1.8443e-01 2.4286e-17 4.5777e-04 8.0185e-01 3.68244473e-01 3.05730456e-05 999 999
1.8394e-01 2.4286e-17 4.1504e-04 7.9973e-01 3.66762298e-01 3.11038763e-05 999 999
1.8345e-01 2.4286e-17 3.7118e-04 7.9762e-01 3.65227894e-01 3.03913660e-05 999 999
1.8296e-01 2.4286e-17 3.2623e-04 7.9550e-01 3.63636128e-01 3.08260392e-05 999 999
1.8248e-01 2.4286e-17 2.8020e-04 7.9338e-01 3.61993330e-01 3.02817627e-05 999 999
1.8199e-01 2.4286e-17 2.3310e-04 7.9126e-01 3.60295490e-01 3.07110427e-05 999 999
1.8150e-01 2.4286e-17 1.8495e-04 7.8914e-01 3.58548735e-01 3.03303553e-05 999 999
1.8101e-01 2.4286e-17 1.3577e-04 7.8702e-01 3.56748699e-01 3.07063058e-05 999 999
1.8053e-01 2.4286e-17 8.5579e-05 7.8490e-01 3.54900717e-01 3.03334539e-05 999 999
1.8004e-01 2.4286e-17 3.4386e-05 7.8277e-01 3.53000779e-01 3.07252111e-05 999 999
1.7955e-01 2.4286e-17 -1.7792e-05 7.8065e-01 3.51053094e-01 3.03632382e-05 999 999
1.7906e-01 2.4286e-17 -7.0938e-05 7.7853e-01 3.49053410e-01 3.07052864e-05 999 999
1.7857e-01 2.4286e-17 -1.2504e-04 7.7641e-01 3.47005802e-01 3.03839238e-05 999 999
1.7808e-01 2.4286e-17 -1.8006e-04 7.7428e-01 3.44908533e-01 3.06412612e-05 999 999
1.7760e-01 2.4286e-17 -2.3601e-04 7.7216e-01 3.42765213e-01 3.04415676e-05 999 999
1.7711e-01 2.4286e-17 -2.9285e-04 7.7003e-01 3.40573857e-01 3.06124839e-05 999 999
1.7662e-01 2.4286e-17 -3.5056e-04 7.6791e-01 3.38338178e-01 3.05086507e-05 999 999
1.7613e-01 2.4286e-17 -4.0913e-04 7.6579e-01 3.36056520e-01 3.06234775e-05 999 999
1.7564e-01 2.4286e-17 -4.6853e-04 7.6366e-01 3.33731523e-01 3.05832438e-05 999 999
1.7515e-01 2.4286e-17 -5.2875e-04 7.6153e-01 3.31362281e-01 3.06665208e-05 999 999
1.7466e-01 2.4286e-17 -5.8977e-04 7.5941e-01 3.28951652e-01 3.06554182e-05 999 999
1.7417e-01 2.4286e-17 -6.5156e-04 7.5728e-01 3.26498768e-01 3.07251453e-05 999 999
1.7369e-01 2.4286e-17 -7.1411e-04 7.5516e-01 3.24005927e-01 3.07335756e-05 999 999
1.7320e-01 2.4286e-17 -7.7740e-04 7.5303e-01 3.21472845e-01 3.08008431e-05 999 999
1.7271e-01 2.4286e-17 -8.4141e-04 7.5090e-01 3.18901332e-01 3.08253372e-05 999 999
1.7222e-01 2.4286e-17 -9.0611e-04 7.4877e-01 3.16290874e-01 3.08988997e-05 999 999
1.7173e-01 2.4286e-17 -9.7150e-04 7.4665e-01 3.13643444e-01 3.09347849e-05 999 999
1.7124e-01 2.4286e-17 -1.0375e-03 7.4452e-01 3.10957679e-01 3.10133256e-05 999 999
1.7075e-01 2.4286e-17 -1.1042e-03 7.4239e-01 3.08236372e-01 3.10564075e-05 999 999
1.7026e-01 2.4286e-17 -1.1716e-03 7.4026e-01 3.05478541e-01 3.11421533e-05 999 999
1.6977e-01 2.4286e-17 -1.2395e-03 7.3813e-01 3.02686295e-01 3.11918833e-05 999 999
1.6928e-01 2.4286e-17 -1.3080e-03 7.3600e-01 2.99859474e-01 3.12829929e-05 999 999
1.6879e-01 2.4286e-17 -1.3771e-03 7.3387e-01 2.97000045e-01 3.13349733e-05 999 999
1.6830e-01 2.4286e-17 -1.4467e-03 7.3174e-01 2.94107272e-01 3.14313390e-05 999 999
1.6781e-01 2.4286e-17 -1.5169e-03 7.2961e-01 2.91184007e-01 3.14849399e-05 999 999
1.6732e-01 2.4286e-17 -1.5876e-03 7.2748e-01 2.88230042e-01 3.15860980e-05 999 999
1.6683e-01 2.4286e-17 -1.6588e-03 7.2535e-01 2.85248015e-01 3.16382335e-05 999 999
1.6634e-01 2.4286e-17 -1.7304e-03 7.2321e-01 2.82237082e-01 3.17410918e-05 999 999
1.6585e-01 2.4286e-17 -1.8025e-03 7.2108e-01 2.79198921e-01 3.17923006e-05 999 999
1.6536e-01 2.4286e-17 -1.8751e-03 7.1895e-01 2.76133239e-01 3.18945367e-05 999 999
1.6487e-01 2.4286e-17 -1.9481e-03 7.1682e-01 2.73041832e-01 3.19453241e-05 999 999
1.6438e-01 2.4286e-17 -2.0215e-03 7.1468e-01 2.69923785e-01 3.20448473e-05 999 999
1.6389e-01 2.4286e-17 -2.0953e-03 7.1255e-01 2.66781323e-01 3.20980947e-05 999 999
1.6340e-01 2.4286e-17 -2.1695e-03 7.1042e-01 2.63613681e-01 3.21929261e-05 999 999
1.6290e-01 2.4286e-17 -2.2441e-03 7.0828e-01 2.60422567e-01 3.22505233e-05 999 999
1.6241e-01 2.4286e-17 -2.3190e-03 7.0615e-01 2.57207977e-01 3.23392892e-05 999 999
1.6192e-01 2.4286e-17 -2.3942e-03 7.0401e-01 2.53971280e-01 3.24022910e-05 999 999
1.6143e-01 2.4286e-17 -2.4698e-03 7.0188e-01 2.50712348e-01 3.24858857e-05 999 999
1.6094e-01 2.4286e-17 -2.5456e-03 6.9974e-01 2.47433544e-01 3.25544672e-05 999 999
1.6045e-01 2.4286e-17 -2.6218e-03 6.9760e-01 2.44134896e-01 3.26344550e-05 999 999
1.5996e-01 2.4286e-17 -2.6982e-03 6.9547e-01 2.40817466e-01 3.27085487e-05 999 999
1.5947e-01 2.4286e-17 -2.7749e-03 6.9333e-01 2.37481672e-01 3.27863287e-05 999 999
1.5897e-01 2.4286e-17 -2.8519e-03 6.9120e-01 2.34128721e-01 3.28643275e-05 999 999
1.5848e-01 2.4286e-17 -2.9291e-03 6.8906e-01 2.30758701e-01 3.29413017e-05 999 999
1.5799e-01 2.4286e-17 -3.0065e-03 6.8692e-01 2.27372874e-01 3.30217011e-05 999 999
1.5750e-01 2.4286e-17 -3.0841e-03 6.8478e-01 2.23971837e-01 3.30989430e-05 999 999
1.5701e-01 2.4286e-17 -3.1619e-03 6.8264e-01 2.20555290e-01 3.31809951e-05 999 999
1.5652e-01 2.4286e-17 -3.2399e-03 6.8051e-01 2.17122798e-01 3.32594920e-05 999 999
1.5602e-01 2.4286e-17 -3.3181e-03 6.7837e-01 2.13674967e-01 3.33427111e-05 999 999
1.5553e-01 2.4286e-17 -3.3965e-03 6.7623e-01 2.10212238e-01 3.34230805e-05 999 999
1.5504e-01 2.4286e-17 -3.4750e-03 6.7409e-01 2.06734953e-01 3.35065744e-05 999 999
1.5455e-01 2.4286e-17 -3.5536e-03 6.7195e-01 2.03244106e-01 3.35886889e-05 999 999
1.5406e-01 2.4286e-17 -3.6324e-03 6.6981e-01 1.99740001e-01 3.36720157e-05 999 999
1.5356e-01 2.4286e-17 -3.7113e-03 6.6767e-01 1.96223355e-01 3.37554144e-05 999 999
1.5307e-01 2.4286e-17 -3.7903e-03 6.6553e-01 1.92694693e-01 3.38384759e-05 999 999
1.5258e-01 2.4286e-17 -3.8694e-03 6.6338e-01 1.89155230e-01 3.39226867e-05 999 999
1.5209e-01 2.4286e-17 -3.9486e-03 6.6124e-01 1.85606593e-01 3.40053683e-05 999 999
1.5159e-01 2.4286e-17 -4.0279e-03 6.5910e-01 1.82048208e-01 3.40896445e-05 999 999
1.5110e-01 2.4286e-17 -4.1072e-03 6.5696e-01 1.78480303e-01 3.41720996e-05 999 999
1.5061e-01 2.4286e-17 -4.1866e-03 6.5482e-01 1.74901949e-01 3.42561125e-05 999 999
1.5011e-01 2.4286e-17 -4.2661e-03 6.5267e-01 1.71314794e-01 3.43387175e-05 999 999
1.4962e-01 2.4286e-17 -4.3456e-03 6.5053e-01 1.67717189e-01 3.44227297e-05 999 999
1.4913e-01 2.4286e-17 -4.4251e-03 6.4839e-01 1.64110779e-01 3.45061269e-05 999 999
1.4864e-01 2.4286e-17 -4.5047e-03 6.4624e-01 1.60494283e-01 3.45905650e-05 999 999
1.4814e-01 2.4286e-17 -4.5843e-03 6.4410e-01 1.56869260e-01 3.46749410e-05 999 999
1.4765e-01 2.4286e-17 -4.6638e-03 6.4195e-01 1.53234996e-01 3.47599496e-05 999 999
1.4716e-01 2.4286e-17 -4.7434e-03 6.3981e-01 1.49592001e-01 3.48452532e-05 999 999
1.4666e-01 2.4286e-17 -4.8230e-03 6.3766e-01 1.45939635e-01 3.49312823e-05 999 999
1.4617e-01 2.4286e-17 -4.9025e-03 6.3552e-01 1.42279288e-01 3.50177721e-05 999 999
1.4568e-01 2.4286e-17 -4.9821e-03 6.3337e-01 1.38610675e-01 3.51052707e-05 999 999
1.4518e-01 2.4286e-17 -5.0616e-03 6.3123e-01 1.34934575e-01 3.51931497e-05 999 999
1.4469e-01 2.4286e-17 -5.1410e-03 6.2908e-01 1.31251620e-01 3.52820774e-05 999 999
1.4420e-01 2.4286e-17 -5.2204e-03 6.2694e-01 1.27561470e-01 3.53713262e-05 999 999
1.4370e-01 2.4286e-17 -5.2998e-03 6.2479e-01 1.23866079e-01 3.54616685e-05 999 999
1.4321e-01 2.4286e-17 -5.3790e-03 6.2264e-01 1.20165496e-01 3.55524214e-05 999 999
1.4271e-01 2.4286e-17 -5.4582e-03 6.2050e-01 1.16460938e-01 3.56441367e-05 999 999
1.4222e-01 2.4286e-17 -5.5373e-03 6.1835e-01 1.12751419e-01 3.57363509e-05 999 999
1.4173e-01 2.4286e-17 -5.6162e-03 6.1620e-01 1.09038106e-01 3.58291889e-05 999 999
1.4123e-01 2.4286e-17 -5.6951e-03 6.1406e-01 1.05318277e-01 3.59227367e-05 999 999
1.4074e-01 2.4286e-17 -5.7738e-03 6.1191e-01 1.01593326e-01 3.60167615e-05 999 999
1.4025e-01 2.4286e-17 -5.8525e-03 6.0977e-01 9.78627694e-02 3.61114651e-05 999 999
1.3975e-01 2.4286e-17 -5.9310e-03 6.0762e-01 9.41261906e-02 3.62065497e-05 999 999
1.3926e-01 2.4286e-17 -6.0093e-03 6.0548e-01 9.03843279e-02 3.63023101e-05 999 999
1.3877e-01 2.4286e-17 -6.0875e-03 6.0333e-01 8.66371456e-02 3.63985875e-05 999 999
1.3827e-01 2.4286e-17 -6.1656e-03 6.0119e-01 8.28848481e-02 3.64956886e-05 999 999
1.3778e-01 2.4286e-17 -6.2434e-03 5.9905e-01 7.91292602e-02 3.65933054e-05 999 999
1.3729e-01 2.4286e-17 -6.3211e-03 5.9690e-01 7.53708285e-02 3.66915173e-05 999 999
1.3679e-01 2.4286e-17 -6.3987e-03 5.9476e-01 7.16108603e-02 3.67902533e-05 999 999
1.3630e-01 2.4286e-17 -6.4760e-03 5.9262e-01 6.78475444e-02 3.68894392e-05 999 999
1.3581e-01 2.4286e-17 -6.5531e-03 5.9048e-01 6.40821105e-02 3.69888295e-05 999 999
1.3532e-01 2.4286e-17 -6.6301e-03 5.8833e-01 6.03163630e-02 3.70887366e-05 999 999
1.3482e-01 2.4286e-17 -6.7068e-03 5.8619e-01 5.65488585e-02 3.71887458e-05 999 999
1.3433e-01 2.4286e-17 -6.7833e-03 5.8406e-01 5.27804168e-02 3.72894046e-05 999 999
1.3384e-01 2.4286e-17 -6.8595e-03 5.8192e-01 4.90108664e-02 3.73900291e-05 999 999
1.3335e-01 2.4286e-17 -6.9356e-03 5.7978e-01 4.52408868e-02 3.74912779e-05 999 999
1.3286e-01 2.4286e-17 -7.0113e-03 5.7764e-01 4.14688843e-02 3.75924665e-05 999 999
1.3237e-01 2.4286e-17 -7.0869e-03 5.7550e-01 3.76953531e-02 3.76942970e-05 999 999
1.3187e-01 2.4286e-17 -7.1622e-03 5.7337e-01 3.39209362e-02 3.77964808e-05 999 999
1.3138e-01 2.4286e-17 -7.2372e-03 5.7123e-01 3.01465138e-02 3.78994217e-05 999 999
1.3089e-01 2.4286e-17 -7.3120e-03 5.6910e-01 2.63706652e-02 3.80029462e-05 999 999
1.3040e-01 2.4286e-17 -7.3865e-03 5.6697e-01 2.25942512e-02 3.81070532e-05 999 999
1.2991e-01 2.4286e-17 -7.4607e-03 5.6484e-01 1.88179438e-02 3.82115124e-05 999 999
1.2942e-01 2.4286e-17 -7.5346e-03 5.6271e-01 1.50407639e-02 3.83162967e-05 999 999
1.2893e-01 2.4286e-17 -7.6082e-03 5.6058e-01 1.12639518e-02 3.84214593e-05 999 999
1.2844e-01 2.4286e-17 -7.6815e-03 5.5845e-01 7.48790785e-03 3.85272074e-05 999 999
1.2795e-01 2.4286e-17 -7.7546e-03 5.5632e-01 3.71501157e-03 3.86336891e-05 999 999
1.2747e-01 2.4286e-17 -7.8273e-03 5.5420e-01 -5.59217385e-05 3.87410673e-05 999 999
1.2698e-01 2.4286e-17 -7.8996e-03 5.5207e-01 -3.82443181e-03 3.88492665e-05 999 999
1.2649e-01 2.4286e-17 -7.9717e-03 5.4995e-01 -7.59032150e-03 3.89581289e-05 999 999
1.2600e-01 2.4286e-17 -8.0434e-03 5.4783e-01 -1.13530331e-02 3.90675341e-05 999 999
1.2551e-01 2.4286e-17 -8.1148e-03 5.4571e-01 -1.51138764e-02 3.91774413e-05 999 999
1.2503e-01 2.4286e-17 -8.1859e-03 5.4359e-01 -1.88727984e-02 3.92879880e-05 999 999
1.2454e-01 2.4286e-17 -8.2566e-03 5.4147e-01 -2.26266177e-02 3.93992427e-05 999 999
1.2405e-01 2.4286e-17 -8.3269e-03 5.3935e-01 -2.63785248e-02 3.95114651e-05 999 999
1.2357e-01 2.4286e-17 -8.3969e-03 5.3724e-01 -3.01267788e-02 3.96245514e-05 999 999
1.2308e-01 2.4286e-17 -8.4665e-03 5.3513e-01 -3.38703487e-02 3.97384486e-05 999 999
1.2259e-01 2.4286e-17 -8.5357e-03 5.3302e-01 -3.76101128e-02 3.98530143e-05 999 999
1.2211e-01 2.4286e-17 -8.6046e-03 5.3091e-01 -4.13447691e-02 3.99681690e-05 999 999
1.2162e-01 2.4286e-17 -8.6731e-03 5.2880e-01 -4.50749912e-02 4.00839582e-05 999 999
1.2114e-01 2.4286e-17 -8.7412e-03 5.2669e-01 -4.88000120e-02 4.02005753e-05 999 999
1.2065e-01 2.4286e-17 -8.8089e-03 5.2459e-01 -5.25197565e-02 4.03180716e-05 999 999
1.2017e-01 2.4286e-17 -8.8762e-03 5.2248e-01 -5.62343714e-02 4.04365549e-05 999 999
1.1969e-01 2.4286e-17 -8.9431e-03 5.2038e-01 -5.99436521e-02 4.05559437e-05 999 999
1.1921e-01 2.4286e-17 -9.0096e-03 5.1828e-01 -6.36481296e-02 4.06761853e-05 999 999
1.1872e-01 2.4286e-17 -9.0757e-03 5.1619e-01 -6.73460318e-02 4.07971024e-05 999 999
1.1824e-01 2.4286e-17 -9.1413e-03 5.1409e-01 -7.10390241e-02 4.09188115e-05 999 999
1.1776e-01 2.4286e-17 -9.2066e-03 5.1200e-01 -7.47253420e-02 4.10413204e-05 999 999
1.1728e-01 2.4286e-17 -9.2714e-03 5.0991e-01 -7.84047683e-02 4.11647759e-05 999 999
1.1680e-01 2.4286e-17 -9.3358e-03 5.0782e-01 -8.20785719e-02 4.12893414e-05 999 999
1.1632e-01 2.4286e-17 -9.3998e-03 5.0573e-01 -8.57453060e-02 4.14149014e-05 999 999
1.1584e-01 2.4286e-17 -9.4633e-03 5.0365e-01 -8.94050038e-02 4.15414578e-05 999 999
1.1536e-01 2.4286e-17 -9.5264e-03 5.0156e-01 -9.30564683e-02 4.16687991e-05 999 999
1.1488e-01 2.4286e-17 -9.5890e-03 4.9948e-01 -9.67013987e-02 4.17970593e-05 999 999
1.1440e-01 2.4286e-17 -9.6512e-03 4.9741e-01 -1.00339183e-01 4.19261170e-05 999 999
1.1393e-01 2.4286e-17 -9.7129e-03 4.9533e-01 -1.03969008e-01 4.20562241e-05 999 999
1.1345e-01 2.4286e-17 -9.7742e-03 4.9326e-01 -1.07590050e-01 4.21873213e-05 999 999
1.1297e-01 2.4286e-17 -9.8350e-03 4.9119e-01 -1.11203582e-01 4.23196354e-05 999 999
1.1250e-01 2.4286e-17 -9.8953e-03 4.8912e-01 -1.14809290e-01 4.24530058e-05 999 999
1.1202e-01 2.4286e-17 -9.9552e-03 4.8705e-01 -1.18406379e-01 4.25874489e-05 999 999
1.1155e-01 2.4286e-17 -1.0015e-02 4.8499e-01 -1.21994978e-01 4.27227589e-05 999 999
1.1107e-01 2.4286e-17 -1.0073e-02 4.8292e-01 -1.25574386e-01 4.28590068e-05 999 999
1.1060e-01 2.4286e-17 -1.0132e-02 4.8087e-01 -1.29144871e-01 4.29961094e-05 999 999
1.1013e-01 2.4286e-17 -1.0190e-02 4.7881e-01 -1.32706694e-01 4.31343465e-05 999 999
1.0965e-01 2.4286e-17 -1.0247e-02 4.7676e-01 -1.36258688e-01 4.32736353e-05 999 999
1.0918e-01 2.4286e-17 -1.0304e-02 4.7470e-01 -1.39800638e-01 4.34141231e-05 999 999
1.0871e-01 2.4286e-17 -1.0361e-02 4.7266e-01 -1.43334568e-01 4.35557850e-05 999 999
1.0824e-01 2.4286e-17 -1.0417e-02 4.7061e-01 -1.46858719e-01 4.36985848e-05 999 999
1.0777e-01 2.4286e-17 -1.0472e-02 4.6857e-01 -1.50372670e-01 4.38423438e-05 999 999
1.0730e-01 2.4286e-17 -1.0527e-02 4.6653e-01 -1.53876685e-01 4.39871620e-05 999 999
1.0683e-01 2.4286e-17 -1.0582e-02 4.6449e-01 -1.57371002e-01 4.41329779e-05 999 999
1.0636e-01 2.4286e-17 -1.0636e-02 4.6245e-01 -1.60856118e-01 4.42800360e-05 999 999
1.0590e-01 2.4286e-17 -1.0689e-02 4.6042e-01 -1.64332027e-01 4.44283032e-05 999 999
1.0543e-01 2.4286e-17 -1.0742e-02 4.5839e-01 -1.67798029e-01 4.45778858e-05 999 999
1.0496e-01 2.4286e-17 -1.0794e-02 4.5637e-01 -1.71254703e-01 4.47286956e-05 999 999
1.0450e-01 2.4286e-17 -1.0846e-02 4.5435e-01 -1.74699463e-01 4.48806411e-05 999 999
1.0403e-01 2.4286e-17 -1.0898e-02 4.5233e-01 -1.78131913e-01 4.50335745e-05 999 999
1.0357e-01 2.4286e-17 -1.0948e-02 4.5031e-01 -1.81552312e-01 4.51875849e-05 999 999
1.0311e-01 2.4286e-17 -1.0999e-02 4.4830e-01 -1.84959607e-01 4.53425190e-05 999 999
1.0265e-01 2.4286e-17 -1.1048e-02 4.4628e-01 -1.88352489e-01 4.54985273e-05 999 999
1.0218e-01 2.4286e-17 -1.1098e-02 4.4428e-01 -1.91730258e-01 4.56555578e-05 999 999
1.0172e-01 2.4286e-17 -1.1146e-02 4.4227e-01 -1.95092994e-01 4.58136957e-05 999 999
1.0126e-01 2.4286e-17 -1.1194e-02 4.4027e-01 -1.98440149e-01 4.59728406e-05 999 999
1.0080e-01 2.4286e-17 -1.1242e-02 4.3827e-01 -2.01769641e-01 4.61328993e-05 999 999
1.0034e-01 2.4286e-17 -1.1289e-02 4.3628e-01 -2.05080364e-01 4.62936942e-05 999 999
9.9886e-02 2.4286e-17 -1.1335e-02 4.3429e-01 -2.08373218e-01 4.64553040e-05 999 999
9.9429e-02 2.4286e-17 -1.1381e-02 4.3230e-01 -2.11647050e-01 4.66175960e-05 999 999
9.8972e-02 2.4286e-17 -1.1427e-02 4.3031e-01 -2.14903772e-01 4.67807568e-05 999 999
9.8517e-02 2.4286e-17 -1.1471e-02 4.2833e-01 -2.18141000e-01 4.69446867e-05 999 999
9.8062e-02 2.4286e-17 -1.1516e-02 4.2636e-01 -2.21360447e-01 4.71094804e-05 999 999
9.7608e-02 2.4286e-17 -1.1559e-02 4.2438e-01 -2.24561266e-01 4.72750767e-05 999 999
9.7154e-02 2.4286e-17 -1.1602e-02 4.2241e-01 -2.27741936e-01 4.74413463e-05 999 999
9.6702e-02 2.4286e-17 -1.1645e-02 4.2044e-01 -2.30901618e-01 4.76082261e-05 999 999
9.6250e-02 2.4286e-17 -1.1687e-02 4.1848e-01 -2.34039334e-01 4.77755516e-05 999 999
9.5799e-02 2.4286e-17 -1.1728e-02 4.1652e-01 -2.37153734e-01 4.79433496e-05 999 999
9.5349e-02 2.4286e-17 -1.1769e-02 4.1456e-01 -2.40243680e-01 4.81114239e-05 999 999
9.4900e-02 2.4286e-17 -1.1809e-02 4.1261e-01 -2.43307207e-01 4.82798529e-05 999 999
9.4452e-02 2.4286e-17 -1.1849e-02 4.1066e-01 -2.46343421e-01 4.84484722e-05 999 999
9.4004e-02 2.4286e-17 -1.1888e-02 4.0871e-01 -2.49352544e-01 4.86173467e-05 999 999
9.3557e-02 2.4286e-17 -1.1926e-02 4.0677e-01 -2.52329417e-01 4.87861400e-05 999 999
9.3112e-02 2.4286e-17 -1.1964e-02 4.0483e-01 -2.55276326e-01 4.89549384e-05 999 999
9.2667e-02 2.4286e-17 -1.2001e-02 4.0290e-01 -2.58190549e-01 4.91235237e-05 999 999
9.2223e-02 2.4286e-17 -1.2038e-02 4.0097e-01 -2.61069688e-01 4.92917938e-05 999 999
9.1780e-02 2.4286e-17 -1.2074e-02 3.9904e-01 -2.63915262e-01 4.94597694e-05 999 999
9.1337e-02 2.4286e-17 -1.2109e-02 3.9712e-01 -2.66725033e-01 4.96273961e-05 999 999
9.0896e-02 2.4286e-17 -1.2144e-02 3.9520e-01 -2.69500382e-01 4.97947317e-05 999 999
9.0455e-02 2.4286e-17 -1.2179e-02 3.9328e-01 -2.72239511e-01 4.99616277e-05 999 999
9.0016e-02 2.4286e-17 -1.2212e-02 3.9137e-01 -2.74941518e-01 5.01280682e-05 999 999
8.9577e-02 2.4286e-17 -1.2245e-02 3.8947e-01 -2.77606397e-01 5.02938913e-05 999 999
8.9139e-02 2.4286e-17 -1.2278e-02 3.8756e-01 -2.80232648e-01 5.04591460e-05 999 999
8.8702e-02 2.4286e-17 -1.2310e-02 3.8566e-01 -2.82820571e-01 5.06235367e-05 999 999
8.8267e-02 2.4286e-17 -1.2341e-02 3.8377e-01 -2.85369661e-01 5.07873342e-05 999 999
8.7832e-02 2.4286e-17 -1.2371e-02 3.8188e-01 -2.87878870e-01 5.09500189e-05 999 999
8.7398e-02 2.4286e-17 -1.2402e-02 3.7999e-01 -2.90345925e-01 5.11119616e-05 999 999
8.6964e-02 2.4286e-17 -1.2431e-02 3.7811e-01 -2.92770223e-01 5.12724881e-05 999 999
8.6532e-02 2.4286e-17 -1.2460e-02 3.7623e-01 -2.95152386e-01 5.14323252e-05 999 999
8.6101e-02 2.4286e-17 -1.2488e-02 3.7435e-01 -2.97491385e-01 5.15903673e-05 999 999
8.5671e-02 2.4286e-17 -1.2516e-02 3.7248e-01 -2.99785602e-01 5.17476708e-05 999 999
8.5242e-02 2.4286e-17 -1.2543e-02 3.7062e-01 -3.02034233e-01 5.19025694e-05 999 999
8.4813e-02 2.4286e-17 -1.2569e-02 3.6875e-01 -3.04237205e-01 5.20569236e-05 999 999
8.4386e-02 2.4286e-17 -1.2595e-02 3.6690e-01 -3.06391224e-01 5.22079615e-05 999 999
8.3960e-02 2.4286e-17 -1.2620e-02 3.6504e-01 -3.08495374e-01 5.23587612e-05 999 999
8.3535e-02 2.4286e-17 -1.2645e-02 3.6319e-01 -3.10550027e-01 5.25052146e-05 999 999
8.3110e-02 2.4286e-17 -1.2669e-02 3.6135e-01 -3.12552095e-01 5.26521655e-05 999 999
8.2687e-02 2.4286e-17 -1.2692e-02 3.5951e-01 -3.14501563e-01 5.27931257e-05 999 999
8.2265e-02 2.4286e-17 -1.2715e-02 3.5767e-01 -3.16399031e-01 5.29360466e-05 999 999
8.1843e-02 2.4286e-17 -1.2737e-02 3.5584e-01 -3.18245915e-01 5.30709157e-05 999 999
8.1423e-02 2.4286e-17 -1.2759e-02 3.5401e-01 -3.20042455e-01 5.32101923e-05 999 999
8.1004e-02 2.4286e-17 -1.2780e-02 3.5219e-01 -3.21788696e-01 5.33380915e-05 999 999
8.0586e-02 2.4286e-17 -1.2800e-02 3.5037e-01 -3.23484967e-01 5.34743719e-05 999 999
8.0169e-02 2.4286e-17 -1.2820e-02 3.4856e-01 -3.25133035e-01 5.35941718e-05 999 999
7.9753e-02 2.4286e-17 -1.2839e-02 3.4675e-01 -3.26730523e-01 5.37284709e-05 999 999
7.9337e-02 2.4286e-17 -1.2858e-02 3.4495e-01 -3.28278037e-01 5.38383215e-05 999 999
7.8923e-02 2.4286e-17 -1.2876e-02 3.4315e-01 -3.29775128e-01 5.39720676e-05 999 999
7.8510e-02 2.4286e-17 -1.2893e-02 3.4135e-01 -3.31221435e-01 5.40694969e-05 999 999
7.8099e-02 2.4286e-17 -1.2910e-02 3.3956e-01 -3.32615643e-01 5.42048927e-05 999 999
7.7688e-02 2.4286e-17 -1.2926e-02 3.3777e-01 -3.33959048e-01 5.42865395e-05 999 999
7.7278e-02 2.4286e-17 -1.2942e-02 3.3599e-01 -3.35249266e-01 5.44267189e-05 999 999
7.6869e-02 2.4286e-17 -1.2957e-02 3.3421e-01 -3.36486747e-01 5.44878837e-05 999 999
7.6462e-02 2.4286e-17 -1.2972e-02 3.3244e-01 -3.37669601e-01 5.46373559e-05 999 999
7.6055e-02 2.4286e-17 -1.2986e-02 3.3067e-01 -3.38801643e-01 5.46722346e-05 999 999
7.5650e-02 2.4286e-17 -1.2999e-02 3.2891e-01 -3.39878233e-01 5.48373948e-05 999 999
7.5245e-02 2.4286e-17 -1.3012e-02 3.2715e-01 -3.40907389e-01 5.48384575e-05 999 999
7.4842e-02 2.4286e-17 -1.3024e-02 3.2540e-01 -3.41881264e-01 5.50280239e-05 999 999
7.4440e-02 2.4286e-17 -1.3036e-02 3.2365e-01 -3.42808505e-01 5.49849882e-05 999 999
7.4039e-02 2.4286e-17 -1.3047e-02 3.2191e-01 -3.43680626e-01 5.52102264e-05 999 999
7.3639e-02 2.4286e-17 -1.3058e-02 3.2017e-01 -3.44508784e-01 5.51109125e-05 999 999
7.3240e-02 2.4286e-17 -1.3068e-02 3.1843e-01 -3.45280218e-01 5.53843427e-05 999 999
7.2842e-02 2.4286e-17 -1.3077e-02 3.1671e-01 -3.46010068e-01 5.52167017e-05 999 999
7.2446e-02 2.4286e-17 -1.3086e-02 3.1498e-01 -3.46679375e-01 5.55485091e-05 999 999
7.2050e-02 2.4286e-17 -1.3095e-02 3.1326e-01 -3.47309851e-01 5.53054672e-05 999 999
7.1656e-02 2.4286e-17 -1.3103e-02 3.1155e-01 -3.47877069e-01 5.56971043e-05 999 999
7.1262e-02 2.4286e-17 -1.3110e-02 3.0984e-01 -3.48409194e-01 5.53839914e-05 999 999
7.0870e-02 2.4286e-17 -1.3117e-02 3.0813e-01 -3.48874586e-01 5.58197499e-05 999 999
7.0479e-02 2.4286e-17 -1.3123e-02 3.0643e-01 -3.49307382e-01 5.54614879e-05 999 999
7.0090e-02 2.4286e-17 -1.3129e-02 3.0474e-01 -3.49671545e-01 5.59061955e-05 999 999
6.9701e-02 2.4286e-17 -1.3134e-02 3.0305e-01 -3.50007840e-01 5.55511558e-05 999 999
6.9313e-02 2.4286e-17 -1.3139e-02 3.0136e-01 -3.50276500e-01 5.59368421e-05 999 999
6.8927e-02 2.4286e-17 -1.3143e-02 2.9968e-01 -3.50517057e-01 5.56652775e-05 999 999
6.8542e-02 2.4286e-17 -1.3147e-02 2.9801e-01 -3.50689925e-01 5.59112075e-05 999 999
6.8158e-02 2.4286e-17 -1.3150e-02 2.9634e-01 -3.50835225e-01 5.57844350e-05 999 999
6.7775e-02 2.4286e-17 -1.3153e-02 2.9467e-01 -3.50916608e-01 5.58706600e-05 999 999