TITLE = "023.01"


# Column       1     2     3     4       5      6      7       8       9
VARIABLES =   "X"   "Y"   "Z"   "CP"   "CF"   "CFX"   "CFY"   "CFZ"   "X/C" 

#---------------------------------------------------
#   PARTICIPANT, GRID, AND SOLVER INFORMATION
#---------------------------------------------------
DATASETAUXDATA ParticipantID   = "023.01"
DATASETAUXDATA SubmissionDate  = "26/10/2024"
DATASETAUXDATA Name            = "Baptiste ARNOULD"
DATASETAUXDATA Email           = "baptiste.arnould@polymtl.ca"
DATASETAUXDATA Institution     = "Polytechnique Montreal"
DATASETAUXDATA SolverName      = "CHAMPS"
DATASETAUXDATA BasicAlgorithm  = "RANS"
DATASETAUXDATA TurbulenceModel = "SA"
DATASETAUXDATA GridId          = "Cadence_Grids.REV01 Unstructured"
DATASETAUXDATA Discretization  = "Finite volume"
DATASETAUXDATA Order           = "2"
DATASETAUXDATA DistanceCalc    = "ANALYTICAL"
DATASETAUXDATA Notes           = "X/C is the last variable instead of beeing the 4th one, therefore Cp is the 4th variable, CF is the 5th etc."



ZONE T="023.01 - Mesh 3 - AOA 1.36 - WING SECTION  1"
AUXDATA GridLevel       = "3"
AUXDATA Mach            = "0.73"
AUXDATA Re              = "3000000.0"
AUXDATA Alpha           = "1.36"
AUXDATA Tstatic         = "273.0"
AUXDATA CLtotal         = "7.815847090323e-01"
AUXDATA Eta             = "0.5"
AUXDATA Dt              = "-"
AUXDATA CtuStart        = "-"
AUXDATA CtuAvg          = "-"
AUXDATA GridFileName    = "ONERA-OAT15A_230mmChord_780mmSpan_upZ_2024_09_05_Unstructured_Level-3.cgns"

 2.300000000000E+02 -1.150000000000E+01 5.749310000000E-01 7.547524875679E-02 3.633653715595E-04 2.715830216124E-04 2.011364618387E-20 -1.417418631612E-04 1.000000000000E+00
 2.300000000000E+02 -1.150000000000E+01 5.144482631579E-01 7.271469488526E-02 5.743805161770E-04 -3.988032500417E-05 -3.418032442154E-21 5.419033563892E-04 1.000000000000E+00
 2.300000000000E+02 -1.150000000000E+01 4.539655263158E-01 9.475127364661E-02 7.155314079281E-04 -1.056388336177E-05 -2.276481081504E-20 7.154459758263E-04 1.000000000000E+00
 2.300000000000E+02 -1.150000000000E+01 3.934827894737E-01 9.196852972083E-02 3.267334003139E-04 -6.005455929181E-08 -2.135637457552E-20 3.267258468107E-04 1.000000000000E+00
 2.300000000000E+02 -1.150000000000E+01 3.330000526316E-01 9.062049874058E-02 3.773726325715E-04 2.630991582401E-06 1.369676610274E-21 3.773634609971E-04 1.000000000000E+00
 2.300000000000E+02 -1.150000000000E+01 2.725173157895E-01 9.052757955100E-02 5.252783385792E-04 2.771218946584E-06 2.768543819749E-20 5.252704722238E-04 1.000000000000E+00
 2.300000000000E+02 -1.150000000000E+01 2.120345789474E-01 9.153999879656E-02 6.590366839443E-04 1.805675792929E-06 4.427183214241E-20 6.590337441906E-04 1.000000000000E+00
 2.300000000000E+02 -1.150000000000E+01 1.515518421053E-01 9.317997790190E-02 7.235718445046E-04 4.116437868597E-07 3.697628626209E-20 7.235713231665E-04 1.000000000000E+00
 2.300000000000E+02 -1.150000000000E+01 9.106910526316E-02 9.511769151144E-02 7.015909305065E-04 -1.094173325331E-06 1.213559410901E-20 7.015896204878E-04 1.000000000000E+00
 2.300000000000E+02 -1.150000000000E+01 3.058636842105E-02 9.704353735143E-02 5.934631895472E-04 -2.491912715334E-06 -6.564476724215E-21 5.934571625337E-04 1.000000000000E+00
 2.300000000000E+02 -1.150000000000E+01 -2.989636842105E-02 9.865506823715E-02 4.105100737293E-04 -3.638662413904E-06 -2.466368179638E-20 4.104911715083E-04 1.000000000000E+00
 2.300000000000E+02 -1.150000000000E+01 -9.037910526316E-02 9.967003816794E-02 1.712618762397E-04 -4.429443539355E-06 -3.803944294285E-20 1.711087142367E-04 1.000000000000E+00
 2.300000000000E+02 -1.150000000000E+01 -1.508618421053E-01 9.986172476645E-02 1.402812055348E-04 -4.753672480851E-06 -1.520809060620E-20 -1.001315379463E-04 1.000000000000E+00
 2.300000000000E+02 -1.150000000000E+01 -2.113445789474E-01 9.914777350023E-02 3.736437860329E-04 -4.521136585559E-06 2.278495259912E-20 -3.736110330427E-04 1.000000000000E+00
 2.300000000000E+02 -1.150000000000E+01 -2.718273157895E-01 9.771527258883E-02 6.199028031675E-04 -3.645202686515E-06 1.887521920849E-20 -6.198907244438E-04 1.000000000000E+00
 2.300000000000E+02 -1.150000000000E+01 -3.323100526316E-01 9.648440808539E-02 8.555235780567E-04 -2.268486456792E-06 -8.923760345211E-21 -8.555198632231E-04 1.000000000000E+00
 2.300000000000E+02 -1.150000000000E+01 -3.927927894737E-01 9.586865970734E-02 1.208718445533E-03 -1.291812300601E-06 -3.522067109903E-20 -1.208717664524E-03 1.000000000000E+00
 2.300000000000E+02 -1.150000000000E+01 -4.532755263158E-01 9.938869777321E-02 2.987755550907E-03 -4.957029141248E-05 -6.058194999268E-20 -2.987225330658E-03 1.000000000000E+00
 2.300000000000E+02 -1.150000000000E+01 -5.137582631579E-01 1.542447224394E-02 2.632820284303E-03 -3.126186935209E-04 -4.045432999961E-20 -2.519622594226E-03 1.000000000000E+00
 2.300000000000E+02 -1.150000000000E+01 -5.742410000000E-01 3.169541358788E-02 1.559303881188E-03 9.079174944520E-04 1.782397166757E-21 -1.805086425328E-05 1.000000000000E+00
 2.299365733358E+02 -1.150000000000E+01 -5.669598699572E-01 1.343212680115E-01 2.834955945557E-03 2.804235646262E-03 2.083215321044E-21 7.634494536562E-05 9.997242318950E-01
 2.298699751436E+02 -1.150000000000E+01 -5.593165123040E-01 1.379493153588E-01 3.075043879273E-03 3.056126504687E-03 -1.428476102077E-20 -3.375428405686E-04 9.994346745373E-01
 2.298000466048E+02 -1.150000000000E+01 -5.512950872375E-01 1.452362530098E-01 3.099220248349E-03 3.076647230156E-03 -1.015212663372E-20 -3.730883477469E-04 9.991306374121E-01
 2.297266209002E+02 -1.150000000000E+01 -5.428795243097E-01 1.498360202979E-01 3.422339538828E-03 3.399646787700E-03 -3.087288388399E-20 -3.934419639662E-04 9.988113952184E-01
 2.296495227983E+02 -1.150000000000E+01 -5.340536202150E-01 1.541218442909E-01 3.515724462765E-03 3.492935819277E-03 -8.354217335397E-20 -3.996460422444E-04 9.984761860797E-01
 2.295685682207E+02 -1.150000000000E+01 -5.248011608334E-01 1.580237811999E-01 3.488627255520E-03 3.466181486547E-03 -6.550064129020E-20 -3.951021942059E-04 9.981242096551E-01
 2.294835637837E+02 -1.150000000000E+01 -5.151060720149E-01 1.618613798509E-01 3.430102485491E-03 3.408148446234E-03 -2.140223040383E-20 -3.874622392684E-04 9.977546251464E-01
 2.293943063143E+02 -1.150000000000E+01 -5.049526043521E-01 1.656862125940E-01 3.369573675829E-03 3.348124975804E-03 -4.515455419800E-22 -3.795860735575E-04 9.973665491926E-01
 2.293005815674E+02 -1.150000000000E+01 -4.943252916365E-01 1.694872545687E-01 3.313876397349E-03 3.292916724516E-03 3.335430391968E-20 -3.721233778278E-04 9.969590502929E-01
 2.292021657900E+02 -1.150000000000E+01 -4.832069536584E-01 1.732409635020E-01 3.262430026536E-03 3.241946091485E-03 5.233387410901E-20 -3.650133096216E-04 9.965311556087E-01
 2.290988243233E+02 -1.150000000000E+01 -4.715786846397E-01 1.769388668546E-01 3.213717481178E-03 3.193702231822E-03 1.541630598661E-20 -3.581138425710E-04 9.960818448840E-01
 2.289903102067E+02 -1.150000000000E+01 -4.594213309833E-01 1.805822251512E-01 3.166988591115E-03 3.147438420059E-03 1.356317594057E-20 -3.513509107273E-04 9.956100443770E-01
 2.288763640348E+02 -1.150000000000E+01 -4.467156883999E-01 1.841759095725E-01 3.122316566568E-03 3.103225967134E-03 5.583243882767E-22 -3.447442603707E-04 9.951146262383E-01
 2.287567121179E+02 -1.150000000000E+01 -4.334421854881E-01 1.877263612831E-01 3.080046789229E-03 3.061405274557E-03 -7.801169191414E-20 -3.383565924566E-04 9.945944005126E-01
 2.286310693685E+02 -1.150000000000E+01 -4.195787692646E-01 1.912416717020E-01 3.040084652352E-03 3.021879315399E-03 -6.614227843433E-20 -3.322036854167E-04 9.940481276890E-01
 2.284991374061E+02 -1.150000000000E+01 -4.051013553677E-01 1.947309543133E-01 3.002036588910E-03 2.984254256906E-03 -7.992017741139E-20 -3.262658360673E-04 9.934745104611E-01
 2.283605974713E+02 -1.150000000000E+01 -3.899842119435E-01 1.982034454328E-01 2.965653413917E-03 2.948281470958E-03 -1.007764006621E-19 -3.205241314703E-04 9.928721629186E-01
 2.282151225398E+02 -1.150000000000E+01 -3.742012832012E-01 2.016678009175E-01 2.930641671674E-03 2.913669781919E-03 -3.637027615698E-20 -3.149415414319E-04 9.922396632165E-01
 2.280623620704E+02 -1.150000000000E+01 -3.577246691144E-01 2.051313318966E-01 2.896621041281E-03 2.880042136572E-03 3.610717672908E-22 -3.094671088120E-04 9.915754872628E-01
 2.279019541751E+02 -1.150000000000E+01 -3.405274184153E-01 2.085997177375E-01 2.863436944906E-03 2.847245902615E-03 -5.625757471815E-20 -3.040740332000E-04 9.908780616308E-01
 2.277335129428E+02 -1.150000000000E+01 -3.225818935722E-01 2.120776797695E-01 2.831106798990E-03 2.815299201392E-03 -1.364357583086E-19 -2.987560659011E-04 9.901457084470E-01
 2.275566368018E+02 -1.150000000000E+01 -3.038600732722E-01 2.155697861063E-01 2.799574070728E-03 2.784145911244E-03 -7.396744500241E-20 -2.935056368441E-04 9.893766817470E-01
 2.273709027629E+02 -1.150000000000E+01 -2.843330070327E-01 2.190804507126E-01 2.768596271917E-03 2.753545375326E-03 -3.819090734532E-20 -2.882918141551E-04 9.885691424472E-01
 2.271758677645E+02 -1.150000000000E+01 -2.639713155984E-01 2.226131032793E-01 2.737869174507E-03 2.723196012838E-03 5.445363835955E-20 -2.830724635018E-04 9.877211641936E-01
 2.269710645818E+02 -1.150000000000E+01 -2.427466324503E-01 2.261696469882E-01 2.707301724934E-03 2.693008260253E-03 7.651195434709E-20 -2.778272680034E-04 9.868307155731E-01
 2.267560036239E+02 -1.150000000000E+01 -2.206313637693E-01 2.297508187443E-01 2.676909066382E-03 2.662997971088E-03 -1.713180105775E-19 -2.725485650597E-04 9.858956679298E-01
 2.265301703950E+02 -1.150000000000E+01 -1.975980391151E-01 2.333568340546E-01 2.646682138403E-03 2.633156084197E-03 -2.512553363401E-19 -2.672340841238E-04 9.849137843261E-01
 2.262930239907E+02 -1.150000000000E+01 -1.736194363628E-01 2.369882118279E-01 2.616742161045E-03 2.603602310707E-03 -2.147049572558E-19 -2.619029307215E-04 9.838827130029E-01
 2.260439986295E+02 -1.150000000000E+01 -1.486681808887E-01 2.406467540862E-01 2.587218776460E-03 2.574464510387E-03 -1.450978420815E-19 -2.565774958478E-04 9.827999940412E-01
 2.257824969396E+02 -1.150000000000E+01 -1.227148281265E-01 2.443358542883E-01 2.558071900297E-03 2.545701667278E-03 -6.873463367784E-20 -2.512634859358E-04 9.816630301721E-01
 2.255078939027E+02 -1.150000000000E+01 -9.572974073269E-02 2.480600796816E-01 2.529234486371E-03 2.517246249312E-03 -5.679790690621E-20 -2.459610155595E-04 9.804691039249E-01
 2.252195320502E+02 -1.150000000000E+01 -6.768302958870E-02 2.518241464762E-01 2.500455355660E-03 2.488848864445E-03 3.347843231271E-21 -2.406380014449E-04 9.792153567398E-01
 2.249167230719E+02 -1.150000000000E+01 -3.854562754760E-02 2.556311289000E-01 2.471356578580E-03 2.460134598892E-03 1.117161717062E-19 -2.352431159107E-04 9.778987959646E-01
 2.245987403596E+02 -1.150000000000E+01 -8.293276185063E-03 2.594815539978E-01 2.441922326611E-03 2.431088925037E-03 2.477835374121E-19 -2.297594040679E-04 9.765162624332E-01
 2.242648228250E+02 -1.150000000000E+01 2.309430739976E-02 2.633742992908E-01 2.412307296734E-03 2.401866685412E-03 1.182956542906E-19 -2.241893512646E-04 9.750644470650E-01
 2.239141698044E+02 -1.150000000000E+01 5.563484996029E-02 2.673079141379E-01 2.382564254103E-03 2.372520159055E-03 7.509388431345E-20 -2.185367528276E-04 9.735398687148E-01
 2.235459432461E+02 -1.150000000000E+01 8.934282870911E-02 2.712814842735E-01 2.352725303698E-03 2.343080650724E-03 7.815580969937E-20 -2.128075491254E-04 9.719388836789E-01
 2.231592586722E+02 -1.150000000000E+01 1.242307553808E-01 2.752948763543E-01 2.322762494360E-03 2.313519645001E-03 1.329758840734E-19 -2.070022471114E-04 9.702576464010E-01
 2.227531901290E+02 -1.150000000000E+01 1.603074933334E-01 2.793484318521E-01 2.292613911563E-03 2.283774856750E-03 1.143885699184E-19 -2.011175149109E-04 9.684921309957E-01
 2.223267643628E+02 -1.150000000000E+01 1.975775632304E-01 2.834425558255E-01 2.262229652711E-03 2.253796188530E-03 -5.455578589324E-20 -1.951483110532E-04 9.666381059250E-01
 2.218789591644E+02 -1.150000000000E+01 2.360400419199E-01 2.875774966189E-01 2.231595495642E-03 2.223569109528E-03 1.949210633310E-19 -1.890920350668E-04 9.646911268018E-01
 2.214087008643E+02 -1.150000000000E+01 2.756871444724E-01 2.917535414392E-01 2.200752811300E-03 2.193134411664E-03 1.669925107510E-19 -1.829511034004E-04 9.626465254969E-01
 2.209148618066E+02 -1.150000000000E+01 3.165038635615E-01 2.959710334012E-01 2.169619846106E-03 2.162410405918E-03 -8.245086533554E-20 -1.767144441641E-04 9.604993991591E-01
 2.203962576183E+02 -1.150000000000E+01 3.584665651384E-01 3.002299800841E-01 2.138018569577E-03 2.131219535000E-03 -7.370817010911E-21 -1.703611364992E-04 9.582445983406E-01
 2.198516440893E+02 -1.150000000000E+01 4.015381663006E-01 3.045295192633E-01 2.105957097335E-03 2.099569664400E-03 -3.519960517626E-20 -1.638854592028E-04 9.558767134317E-01
 2.192797142947E+02 -1.150000000000E+01 4.456676542984E-01 3.088682352569E-01 2.073492761646E-03 2.067517596924E-03 -1.345315678979E-19 -1.572857734200E-04 9.533900621509E-01
 2.186790955838E+02 -1.150000000000E+01 4.907896030579E-01 3.132442550373E-01 2.040561642562E-03 2.034998936514E-03 1.011054484565E-19 -1.505535922670E-04 9.507786764511E-01
 2.180483461930E+02 -1.150000000000E+01 5.368205163383E-01 3.176549544231E-01 2.007147930464E-03 2.001997043825E-03 2.336741472530E-20 -1.436854200155E-04 9.480362877958E-01
 2.173859518400E+02 -1.150000000000E+01 5.836565253757E-01 3.220975280603E-01 1.973188278737E-03 1.968447920580E-03 6.434110869107E-20 -1.366717857150E-04 9.451563123476E-01
 2.166903221680E+02 -1.150000000000E+01 6.311708624610E-01 3.265669175447E-01 1.938535288546E-03 1.934203602099E-03 2.649685345860E-19 -1.294967750717E-04 9.421318355132E-01
 2.159597867100E+02 -1.150000000000E+01 6.792060874078E-01 3.310547042569E-01 1.903218372290E-03 1.899292309169E-03 1.130377686499E-19 -1.221567602807E-04 9.389555943915E-01
 2.151925910988E+02 -1.150000000000E+01 7.275714196584E-01 3.355520864875E-01 1.867259804931E-03 1.863735101621E-03 6.084110334864E-20 -1.146446867184E-04 9.356199612991E-01
 2.143868930022E+02 -1.150000000000E+01 7.760377158241E-01 3.400527437395E-01 1.830581384273E-03 1.827452410250E-03 -1.857486390753E-20 -1.069483649446E-04 9.321169260964E-01
 2.135407576064E+02 -1.150000000000E+01 8.243265060108E-01 3.445443554332E-01 1.793227381101E-03 1.790486616492E-03 1.464734107302E-19 -9.906252116596E-05 9.284380765497E-01
 2.126521535296E+02 -1.150000000000E+01 8.721072147232E-01 3.490173863616E-01 1.755169861325E-03 1.752807662820E-03 -8.656550734853E-20 -9.097756620226E-05 9.245745805637E-01
 2.117189481364E+02 -1.150000000000E+01 9.189851043883E-01 3.534554061047E-01 1.716151401038E-03 1.714155729347E-03 -3.747996370888E-19 -8.267493909602E-05 9.205171658103E-01
 2.107389030068E+02 -1.150000000000E+01 9.644920141779E-01 3.578266054523E-01 1.675342858391E-03 1.673699279580E-03 -2.490149498093E-19 -7.411251361872E-05 9.162561000296E-01
 2.097096693128E+02 -1.150000000000E+01 1.008074669271E+00 3.620836739178E-01 1.630673352867E-03 1.629365449915E-03 -2.416537544752E-19 -6.519754562324E-05 9.117811709252E-01
 2.086287830369E+02 -1.150000000000E+01 1.049077253429E+00 3.662308646815E-01 1.582772698189E-03 1.581775359718E-03 -1.616801394568E-20 -5.605579362834E-05 9.070816653778E-01
 2.074936606041E+02 -1.150000000000E+01 1.086729056178E+00 3.702515709482E-01 1.538534664120E-03 1.537810345349E-03 1.154512377832E-19 -4.704989759363E-05 9.021463504527E-01
 2.063441148072E+02 -1.150000000000E+01 1.119039993622E+00 3.740023746983E-01 1.500996250869E-03 1.500503693961E-03 -2.452758612956E-20 -3.824867788168E-05 8.971483252486E-01
 2.051943982208E+02 -1.150000000000E+01 1.145321978323E+00 3.773323309923E-01 1.464998747669E-03 1.464695481513E-03 -1.882456104421E-19 -2.954333116583E-05 8.921495574818E-01
 2.040445364873E+02 -1.150000000000E+01 1.165404185750E+00 3.802578284109E-01 1.427783670496E-03 1.427623891686E-03 -1.752028245752E-19 -2.099175335716E-05 8.871501586405E-01
 2.028945623783E+02 -1.150000000000E+01 1.179121446065E+00 3.828067703979E-01 1.390723557035E-03 1.390660302933E-03 -6.094426801728E-20 -1.266620430749E-05 8.821502712099E-01
 2.017445104337E+02 -1.150000000000E+01 1.186327045608E+00 3.849611673714E-01 1.355036975486E-03 1.355023548535E-03 -3.328874801597E-21 -4.587998459594E-06 8.771500453640E-01
 2.005944176869E+02 -1.150000000000E+01 1.186881136059E+00 3.867552672697E-01 1.320856080755E-03 1.320846371838E-03 -9.316777938322E-21 3.238802101112E-06 8.721496421171E-01
 1.994443235331E+02 -1.150000000000E+01 1.180654316796E+00 3.881820249872E-01 1.287923218775E-03 1.287872048504E-03 -1.206523437398E-19 1.081288312155E-05 8.671492327525E-01
 1.982942695769E+02 -1.150000000000E+01 1.167524304218E+00 3.891989088274E-01 1.257088300023E-03 1.256951667378E-03 -9.090463326696E-20 1.813696980780E-05 8.621489981605E-01
 1.971442989329E+02 -1.150000000000E+01 1.147406922808E+00 3.898434228705E-01 1.228638850447E-03 1.228374442139E-03 -4.059186547841E-20 2.521024688255E-05 8.571491257951E-01
 1.959944553578E+02 -1.150000000000E+01 1.120257344173E+00 3.901092965793E-01 1.201878007928E-03 1.201445568755E-03 -1.811609535052E-19 3.202590588708E-05 8.521498059037E-01
 1.948447831527E+02 -1.150000000000E+01 1.086040397384E+00 3.899908672122E-01 1.176847433160E-03 1.176208693175E-03 -6.039317502928E-20 3.859857288627E-05 8.471512310989E-01
 1.936953266306E+02 -1.150000000000E+01 1.044739316897E+00 3.895165362160E-01 1.153775976919E-03 1.152894695740E-03 9.484627582967E-20 4.494667446689E-05 8.421535940460E-01
 1.925461300462E+02 -1.150000000000E+01 9.963465055932E-01 3.886775020949E-01 1.132713030350E-03 1.131555122161E-03 -2.136190856035E-19 5.108561530864E-05 8.371570871576E-01
 1.913972356656E+02 -1.150000000000E+01 9.408988519915E-01 3.874560314405E-01 1.113880490055E-03 1.112413877487E-03 -3.044135698251E-19 5.704042283671E-05 8.321618941983E-01
 1.902486840697E+02 -1.150000000000E+01 8.784527390092E-01 3.858950421493E-01 1.097432556458E-03 1.095627742831E-03 -1.401429274398E-19 6.282688743939E-05 8.271681916073E-01
 1.891005128995E+02 -1.150000000000E+01 8.090962952539E-01 3.839788133730E-01 1.083368913443E-03 1.081198354742E-03 -2.662627069944E-19 6.846935753674E-05 8.221761430413E-01
 1.879527552630E+02 -1.150000000000E+01 7.329565024448E-01 3.817457586701E-01 1.071211874548E-03 1.068651400878E-03 -4.658580993109E-19 7.395584243358E-05 8.171858924477E-01
 1.868054433619E+02 -1.150000000000E+01 6.501658151611E-01 3.791737039920E-01 1.060585768558E-03 1.057613664908E-03 -5.590854564510E-19 7.928709147816E-05 8.121975798345E-01
 1.856586035659E+02 -1.150000000000E+01 5.608696264122E-01 3.762533181830E-01 1.052221881819E-03 1.048815839609E-03 -2.533191925534E-19 8.454443167060E-05 8.072113198519E-01
 1.845122610897E+02 -1.150000000000E+01 4.652183581858E-01 3.730477361861E-01 1.046416759876E-03 1.042555566020E-03 1.626964075545E-19 8.976647378246E-05 8.022272221293E-01
 1.833664350865E+02 -1.150000000000E+01 3.633977804251E-01 3.695128900850E-01 1.043017296430E-03 1.038681350602E-03 5.766507972165E-19 9.496736669420E-05 7.972453699414E-01
 1.822211380174E+02 -1.150000000000E+01 2.556295672775E-01 3.656910493195E-01 1.041787893317E-03 1.036960405305E-03 6.234251374908E-19 1.001416922508E-04 7.922658174669E-01
 1.810763801141E+02 -1.150000000000E+01 1.421378305447E-01 3.615946036755E-01 1.042286879672E-03 1.036953927338E-03 2.827205882949E-19 1.052721943089E-04 7.872886091916E-01
 1.799321657110E+02 -1.150000000000E+01 2.315030638154E-02 3.572217174440E-01 1.044584390799E-03 1.038732303864E-03 -4.226206365491E-19 1.103901073301E-04 7.823137639608E-01
 1.787884971780E+02 -1.150000000000E+01 -1.011040166125E-01 3.525834912431E-01 1.048895547581E-03 1.042510310293E-03 -2.463146540625E-19 1.155370723576E-04 7.773412920784E-01
 1.776453723400E+02 -1.150000000000E+01 -2.303871599311E-01 3.476899535297E-01 1.055104786845E-03 1.048173929597E-03 7.048469119511E-19 1.207172668312E-04 7.723711840870E-01
 1.765027846073E+02 -1.150000000000E+01 -3.644502916069E-01 3.425231523044E-01 1.063275578068E-03 1.055786874189E-03 2.976756875649E-19 1.259547165915E-04 7.674034113361E-01
 1.753607241593E+02 -1.150000000000E+01 -5.030437643287E-01 3.371240291914E-01 1.073472025595E-03 1.065413573123E-03 4.720173800057E-20 1.312709735787E-04 7.624379311274E-01
 1.742191778627E+02 -1.150000000000E+01 -6.459153210683E-01 3.314968101690E-01 1.085417536310E-03 1.076779960618E-03 5.159180747325E-19 1.366473010532E-04 7.574746863598E-01
 1.730781296248E+02 -1.150000000000E+01 -7.928118952987E-01 3.256469067468E-01 1.099078305173E-03 1.089853297713E-03 7.069998962510E-19 1.420901571515E-04 7.525136070642E-01
 1.719375606735E+02 -1.150000000000E+01 -9.434805721162E-01 3.195875049997E-01 1.114471379605E-03 1.104651492492E-03 5.195419366688E-19 1.476095660154E-04 7.475546116238E-01
 1.707974497024E+02 -1.150000000000E+01 -1.097668432018E+00 3.133220146463E-01 1.131513362360E-03 1.121092453041E-03 -1.201929895531E-19 1.532043272534E-04 7.425976074018E-01
 1.696577732530E+02 -1.150000000000E+01 -1.255124123005E+00 3.068702952147E-01 1.149997424994E-03 1.138971524541E-03 -4.866098265634E-19 1.588571739632E-04 7.376424924045E-01
 1.685185079705E+02 -1.150000000000E+01 -1.415612538625E+00 3.002494921833E-01 1.169804620935E-03 1.158171107750E-03 -1.048584007191E-18 1.645614177417E-04 7.326891650890E-01
 1.673796299053E+02 -1.150000000000E+01 -1.578909417159E+00 2.934660343554E-01 1.190948755444E-03 1.178705260350E-03 -1.247652267123E-18 1.703262125208E-04 7.277375213274E-01
 1.662411146823E+02 -1.150000000000E+01 -1.744792553260E+00 2.865305842291E-01 1.213372088042E-03 1.200517830468E-03 -5.975610790550E-19 1.761453062536E-04 7.227874551403E-01
 1.651029359779E+02 -1.150000000000E+01 -1.913046680394E+00 2.794514605538E-01 1.236986064246E-03 1.223522385422E-03 -3.013614225092E-19 1.820058264067E-04 7.178388520777E-01
 1.639650673199E+02 -1.150000000000E+01 -2.083458299699E+00 2.722374218884E-01 1.261614229507E-03 1.247545135762E-03 -1.078003287092E-18 1.878840650358E-04 7.128915970430E-01
 1.628274822772E+02 -1.150000000000E+01 -2.255823899165E+00 2.648990185899E-01 1.287197724034E-03 1.272528755131E-03 -1.513040102181E-18 1.937719192291E-04 7.079455751182E-01
 1.616901553499E+02 -1.150000000000E+01 -2.429953055354E+00 2.574444988252E-01 1.313744413103E-03 1.298481359336E-03 -2.125934189341E-19 1.996740084408E-04 7.030006754343E-01
 1.605530605903E+02 -1.150000000000E+01 -2.605658285497E+00 2.498862722932E-01 1.341007410128E-03 1.325159156400E-03 5.499686163956E-21 2.055563121200E-04 6.980567851752E-01
 1.594161739211E+02 -1.150000000000E+01 -2.782769216222E+00 2.422269291738E-01 1.369002363704E-03 1.352578184181E-03 -1.138670339842E-19 2.114217774101E-04 6.931137996569E-01
 1.582794717619E+02 -1.150000000000E+01 -2.961124419910E+00 2.344830737526E-01 1.397762870382E-03 1.380771902533E-03 1.458858744622E-18 2.172775826703E-04 6.881716163563E-01
 1.571429314940E+02 -1.150000000000E+01 -3.140565433804E+00 2.266535691314E-01 1.427180235622E-03 1.409634046996E-03 1.356739634480E-18 2.231029690364E-04 6.832301369303E-01
 1.560065299516E+02 -1.150000000000E+01 -3.320943048825E+00 2.187518163994E-01 1.457228248391E-03 1.439139527351E-03 -1.691685417325E-18 2.288915275984E-04 6.782892606592E-01
 1.548702445607E+02 -1.150000000000E+01 -3.502110019952E+00 2.107812193345E-01 1.487650819513E-03 1.469035750348E-03 -7.507930897666E-19 2.346033710327E-04 6.733488893942E-01
 1.537340548288E+02 -1.150000000000E+01 -3.683929479762E+00 2.027422868923E-01 1.518449577397E-03 1.499324742978E-03 1.726256700871E-18 2.402380292643E-04 6.684089340382E-01
 1.525979416769E+02 -1.150000000000E+01 -3.866276789671E+00 1.946476540415E-01 1.549742359643E-03 1.530122814087E-03 1.222997935515E-18 2.458159438547E-04 6.634693116387E-01
 1.514618854170E+02 -1.150000000000E+01 -4.049029245657E+00 1.864988144696E-01 1.581409265120E-03 1.561311982720E-03 7.309483403695E-19 2.513167634915E-04 6.585299365958E-01
 1.503258675629E+02 -1.150000000000E+01 -4.232072706139E+00 1.783018692638E-01 1.613422590354E-03 1.592865515147E-03 -1.121535347489E-19 2.567331092881E-04 6.535907285343E-01
 1.491898706156E+02 -1.150000000000E+01 -4.415296923749E+00 1.700582795370E-01 1.645714482884E-03 1.624716642018E-03 -3.217225699436E-20 2.620534093092E-04 6.486516113722E-01
 1.480538779532E+02 -1.150000000000E+01 -4.598595005035E+00 1.617706044792E-01 1.678181674638E-03 1.656763752876E-03 1.577362685406E-18 2.672594243571E-04 6.437125128400E-01
 1.469178743573E+02 -1.150000000000E+01 -4.781869078883E+00 1.534421616066E-01 1.710917283494E-03 1.689099244861E-03 1.792988165986E-18 2.723631465555E-04 6.387733667708E-01
 1.457818442474E+02 -1.150000000000E+01 -4.965022836054E+00 1.450742719261E-01 1.744035244351E-03 1.721836480083E-03 -4.422417072766E-19 2.773770742591E-04 6.338341054235E-01
 1.446457723003E+02 -1.150000000000E+01 -5.147959557227E+00 1.366699855784E-01 1.777558415063E-03 1.754999405786E-03 -1.488023620211E-18 2.822958444474E-04 6.288946621751E-01
 1.435096437698E+02 -1.150000000000E+01 -5.330582055362E+00 1.282335555433E-01 1.811278897998E-03 1.788383175754E-03 -3.063287030950E-19 2.870831911147E-04 6.239549729122E-01
 1.423734420337E+02 -1.150000000000E+01 -5.512795784242E+00 1.197690092986E-01 1.844890234452E-03 1.821684672451E-03 1.418287590616E-18 2.916929441707E-04 6.190149653639E-01
 1.412371563399E+02 -1.150000000000E+01 -5.694519903472E+00 1.112760676874E-01 1.878513661637E-03 1.855022983121E-03 1.291716644010E-18 2.961470748244E-04 6.140745927823E-01
 1.401007745885E+02 -1.150000000000E+01 -5.875679388149E+00 1.027530369657E-01 1.912509150554E-03 1.888753912583E-03 6.518823865887E-19 3.004989413974E-04 6.091338025587E-01
 1.389642849061E+02 -1.150000000000E+01 -6.056196165609E+00 9.420227225668E-02 1.946956140418E-03 1.922957524082E-03 -9.352886637849E-20 3.047493807300E-04 6.041925430698E-01
 1.378276745865E+02 -1.150000000000E+01 -6.235986039955E+00 8.562529085413E-02 1.981652937750E-03 1.957436166903E-03 9.021844715887E-19 3.088551741376E-04 5.992507590720E-01
 1.366909310175E+02 -1.150000000000E+01 -6.414964359392E+00 7.702626150758E-02 2.016445952983E-03 1.992038808144E-03 1.165975595079E-18 3.127859383171E-04 5.943083957283E-01
 1.355540424965E+02 -1.150000000000E+01 -6.593051100609E+00 6.841010169852E-02 2.051380993756E-03 2.026810710047E-03 -3.284319523643E-19 3.165463049672E-04 5.893654021585E-01
 1.344169981385E+02 -1.150000000000E+01 -6.770169681917E+00 5.977846323268E-02 2.086453582848E-03 2.061747069718E-03 3.828946961546E-19 3.201353793929E-04 5.844217310371E-01
 1.332797871856E+02 -1.150000000000E+01 -6.946245326103E+00 5.113377959187E-02 2.121553692190E-03 2.096738754807E-03 4.090079512762E-19 3.235360696621E-04 5.794773355898E-01
 1.321424006171E+02 -1.150000000000E+01 -7.121209749814E+00 4.247658538355E-02 2.156747430721E-03 2.131850956423E-03 -3.776981001216E-19 3.267563777379E-04 5.745321765961E-01
 1.310048295058E+02 -1.150000000000E+01 -7.294996245843E+00 3.380620294864E-02 2.192194015571E-03 2.167241423055E-03 -8.957670105186E-19 3.298147523392E-04 5.695862152425E-01
 1.298670649159E+02 -1.150000000000E+01 -7.467536073445E+00 2.512457099685E-02 2.227900464572E-03 2.202918025439E-03 -5.676432067709E-19 3.327025523527E-04 5.646394126777E-01
 1.287290977699E+02 -1.150000000000E+01 -7.638758020279E+00 1.643450826852E-02 2.263787908878E-03 2.238803640480E-03 6.299299431764E-20 3.353983399039E-04 5.596917294344E-01
 1.275909192303E+02 -1.150000000000E+01 -7.808590787220E+00 7.739223290939E-03 2.299873064027E-03 2.274915402095E-03 4.942756969449E-19 3.378962068859E-04 5.547431270883E-01
 1.264525208062E+02 -1.150000000000E+01 -7.976963630723E+00 -9.560869277617E-04 2.336154443863E-03 2.311251860607E-03 5.757916640931E-19 3.401910638903E-04 5.497935687225E-01
 1.253138943232E+02 -1.150000000000E+01 -8.143806070057E+00 -9.647773034827E-03 2.372385129252E-03 2.347567820768E-03 3.872410436307E-19 3.422481191272E-04 5.448430187966E-01
 1.241750326612E+02 -1.150000000000E+01 -8.309052906545E+00 -1.833490149609E-02 2.408405334164E-03 2.383703781917E-03 2.273507903087E-19 3.440486640203E-04 5.398914463532E-01
 1.230359302556E+02 -1.150000000000E+01 -8.472647832755E+00 -2.701949314047E-02 2.444559640920E-03 2.420000280655E-03 4.865188109284E-19 3.456401402404E-04 5.349388271985E-01
 1.218965817352E+02 -1.150000000000E+01 -8.634534143694E+00 -3.570271885842E-02 2.481265792279E-03 2.456871925014E-03 1.053236179046E-18 3.470684856441E-04 5.299851379793E-01
 1.207569806054E+02 -1.150000000000E+01 -8.794645292332E+00 -4.437989807051E-02 2.518383911882E-03 2.494181729827E-03 8.862539302386E-19 3.482971027394E-04 5.250303504582E-01
 1.196171200326E+02 -1.150000000000E+01 -8.952910033698E+00 -5.304437141833E-02 2.555392814624E-03 2.531413326625E-03 5.346991807750E-20 3.492483831197E-04 5.200744349244E-01
 1.184769943633E+02 -1.150000000000E+01 -9.109263176788E+00 -6.169217438544E-02 2.592110716743E-03 2.568384792656E-03 1.961823592931E-19 3.499036050915E-04 5.151173667969E-01
 1.173365998048E+02 -1.150000000000E+01 -9.263650825816E+00 -7.032345671745E-02 2.628905601781E-03 2.605459123677E-03 5.796159970381E-19 3.503169933036E-04 5.101591295862E-01
 1.161959329209E+02 -1.150000000000E+01 -9.416019631625E+00 -7.893999949173E-02 2.666069629507E-03 2.642925653777E-03 -2.099687321778E-19 3.505215588831E-04 5.051997083516E-01
 1.150549898901E+02 -1.150000000000E+01 -9.566311154920E+00 -8.754002460663E-02 2.703494152514E-03 2.680677319041E-03 -7.529687999263E-19 3.504901312747E-04 5.002390864789E-01
 1.139137669028E+02 -1.150000000000E+01 -9.714464572179E+00 -9.612042635135E-02 2.740997197358E-03 2.718533776225E-03 -7.495768532222E-19 3.501896394238E-04 4.952772474037E-01