TITLE = "023.01"


# Column       1     2     3     4       5      6      7       8       9
VARIABLES =   "X"   "Y"   "Z"   "CP"   "CF"   "CFX"   "CFY"   "CFZ"   "X/C" 

#---------------------------------------------------
#   PARTICIPANT, GRID, AND SOLVER INFORMATION
#---------------------------------------------------
DATASETAUXDATA ParticipantID   = "023.01"
DATASETAUXDATA SubmissionDate  = "26/10/2024"
DATASETAUXDATA Name            = "Baptiste ARNOULD"
DATASETAUXDATA Email           = "baptiste.arnould@polymtl.ca"
DATASETAUXDATA Institution     = "Polytechnique Montreal"
DATASETAUXDATA SolverName      = "CHAMPS"
DATASETAUXDATA BasicAlgorithm  = "RANS"
DATASETAUXDATA TurbulenceModel = "SA"
DATASETAUXDATA GridId          = "Cadence_Grids.REV01 Unstructured"
DATASETAUXDATA Discretization  = "Finite volume"
DATASETAUXDATA Order           = "2"
DATASETAUXDATA DistanceCalc    = "ANALYTICAL"
DATASETAUXDATA Notes           = "X/C is the last variable instead of beeing the 4th one, therefore Cp is the 4th variable, CF is the 5th etc."



ZONE T="023.01 - Mesh 1 - AOA 1.36 - WING SECTION  1"
AUXDATA GridLevel       = "1"
AUXDATA Mach            = "0.73"
AUXDATA Re              = "3000000.0"
AUXDATA Alpha           = "1.36"
AUXDATA Tstatic         = "273.0"
AUXDATA CLtotal         = "7.694071202639e-01"
AUXDATA Eta             = "0.5"
AUXDATA Dt              = "-"
AUXDATA CtuStart        = "-"
AUXDATA CtuAvg          = "-"
AUXDATA GridFileName    = "ONERA-OAT15A_230mmChord_780mmSpan_upZ_2024_09_05_Unstructured_Level-1.cgns"

 2.300000000000E+02 -1.150000000000E+01 5.749310000000E-01 6.819816027615E-02 3.244716811927E-04 2.302605594671E-04 8.265825542875E-20 -1.603772913436E-04 1.000000000000E+00
 2.300000000000E+02 -1.150000000000E+01 4.472452222222E-01 6.177806666645E-02 6.276816238126E-04 -1.741440555291E-05 9.244753510299E-20 5.180396545695E-04 1.000000000000E+00
 2.300000000000E+02 -1.150000000000E+01 3.195594444444E-01 9.140410848324E-02 9.874559737870E-04 -2.646275472154E-06 7.409588405587E-20 9.874523452847E-04 1.000000000000E+00
 2.300000000000E+02 -1.150000000000E+01 1.918736666667E-01 9.277153091163E-02 7.485481728761E-04 -3.690913489687E-06 2.063912773693E-20 7.485376062933E-04 1.000000000000E+00
 2.300000000000E+02 -1.150000000000E+01 6.418788888889E-02 9.755391934364E-02 4.280369398740E-04 -7.763342250850E-06 -2.600280370469E-20 4.278760630013E-04 1.000000000000E+00
 2.300000000000E+02 -1.150000000000E+01 -6.349788888889E-02 1.008757492452E-01 3.979538696024E-04 -1.242457738918E-05 -5.322967799478E-20 -2.074989187016E-04 1.000000000000E+00
 2.300000000000E+02 -1.150000000000E+01 -1.911836666667E-01 9.912996899046E-02 1.097869135106E-03 -1.607364654722E-05 -3.769820964272E-20 -1.097735958756E-03 1.000000000000E+00
 2.300000000000E+02 -1.150000000000E+01 -3.188694444444E-01 9.735204003498E-02 2.772916841645E-03 -3.197192315494E-05 -1.444619025486E-20 -2.772732500610E-03 1.000000000000E+00
 2.300000000000E+02 -1.150000000000E+01 -4.465552222222E-01 -1.609665066763E-02 2.171492479487E-03 -1.979955261802E-04 1.616390531737E-20 -2.060641363731E-03 1.000000000000E+00
 2.300000000000E+02 -1.150000000000E+01 -5.742410000000E-01 1.156625286870E-02 1.069859277702E-03 6.876465523304E-04 3.567715495050E-20 6.960975178701E-05 1.000000000000E+00
 2.298731464936E+02 -1.150000000000E+01 -5.596804113754E-01 1.488338161344E-01 2.121393148445E-03 2.102645895561E-03 6.422671089668E-21 3.736996631091E-05 9.994484630155E-01
 2.297399487528E+02 -1.150000000000E+01 -5.444064244545E-01 1.499545435560E-01 2.395058816516E-03 2.380352962856E-03 -7.069953406915E-21 -2.616775085503E-04 9.988693424033E-01
 2.296000876294E+02 -1.150000000000E+01 -5.284015419415E-01 1.588782413329E-01 2.635006554554E-03 2.615529955452E-03 -1.515656640045E-20 -3.194685297514E-04 9.982612505627E-01
 2.294532275395E+02 -1.150000000000E+01 -5.116518824394E-01 1.649498806250E-01 3.104579222563E-03 3.084065520578E-03 -1.624882404652E-20 -3.562638649695E-04 9.976227284325E-01
 2.292990147574E+02 -1.150000000000E+01 -4.941479525043E-01 1.706460878807E-01 3.241376578052E-03 3.220803372874E-03 3.986395595443E-20 -3.646139842066E-04 9.969522380759E-01
 2.291370784240E+02 -1.150000000000E+01 -4.758774909928E-01 1.758283681884E-01 3.210719360116E-03 3.190722200253E-03 1.261732182265E-19 -3.577832424388E-04 9.962481670607E-01
 2.289670317335E+02 -1.150000000000E+01 -4.568205656457E-01 1.808870733984E-01 3.141874409178E-03 3.122587588046E-03 9.388448899048E-20 -3.475918077023E-04 9.955088336239E-01
 2.287884662088E+02 -1.150000000000E+01 -4.369579603062E-01 1.858722437349E-01 3.076190401554E-03 3.057577472227E-03 1.185628827994E-20 -3.378843078320E-04 9.947324617774E-01
 2.286009543554E+02 -1.150000000000E+01 -4.162670052946E-01 1.907666548427E-01 3.019983649210E-03 3.001987942262E-03 -9.199008206323E-22 -3.291928826242E-04 9.939171928495E-01
 2.284040461727E+02 -1.150000000000E+01 -3.947159894954E-01 1.955586824826E-01 2.970129476180E-03 2.952709690795E-03 -2.288170167202E-20 -3.212054135946E-04 9.930610703160E-01
 2.281972747322E+02 -1.150000000000E+01 -3.722711832399E-01 2.002594135399E-01 2.923663390282E-03 2.906791962565E-03 -5.314534305772E-20 -3.136342535660E-04 9.921620640531E-01
 2.279801430118E+02 -1.150000000000E+01 -3.488967787964E-01 2.048889955372E-01 2.879268951454E-03 2.862926975797E-03 -9.302368902259E-21 -3.063285256497E-04 9.912180130947E-01
 2.277521324313E+02 -1.150000000000E+01 -3.245599640516E-01 2.094662328629E-01 2.836713310131E-03 2.820885005803E-03 4.834359804034E-20 -2.992465537910E-04 9.902266627450E-01
 2.275126977199E+02 -1.150000000000E+01 -2.992284140367E-01 2.140063595156E-01 2.795913087264E-03 2.780585392328E-03 5.755696112150E-20 -2.923578785854E-04 9.891856422606E-01
 2.272612653155E+02 -1.150000000000E+01 -2.728688856764E-01 2.185213054020E-01 2.756293544059E-03 2.741458562640E-03 1.359302546662E-19 -2.855822725956E-04 9.880924578936E-01
 2.269972360109E+02 -1.150000000000E+01 -2.454499578499E-01 2.230191470858E-01 2.717336118009E-03 2.702990429359E-03 1.896370214778E-19 -2.788483498516E-04 9.869445043954E-01
 2.267199750651E+02 -1.150000000000E+01 -2.169437021699E-01 2.275044592775E-01 2.678976174081E-03 2.665118153831E-03 1.449812126131E-19 -2.721332841649E-04 9.857390220224E-01
 2.264288182373E+02 -1.150000000000E+01 -1.873238999233E-01 2.319801956558E-01 2.641383377576E-03 2.628010487869E-03 2.668783477383E-20 -2.654521950195E-04 9.844731227707E-01
 2.261230708582E+02 -1.150000000000E+01 -1.565657175518E-01 2.364502882440E-01 2.604780627483E-03 2.591887577234E-03 -3.593759040014E-20 -2.588409831432E-04 9.831437863398E-01
 2.258019979119E+02 -1.150000000000E+01 -1.246415808137E-01 2.409212986287E-01 2.569194043846E-03 2.556773667748E-03 -8.698368699711E-21 -2.523175157207E-04 9.817478170083E-01
 2.254648316481E+02 -1.150000000000E+01 -9.152265373951E-02 2.454019945336E-01 2.534347841541E-03 2.522393267238E-03 -6.692007603768E-20 -2.458633785687E-04 9.802818767307E-01
 2.251107639736E+02 -1.150000000000E+01 -5.718007142926E-02 2.499008099169E-01 2.499658496424E-03 2.488166747993E-03 -8.135640988281E-21 -2.394082976334E-04 9.787424520591E-01
 2.247389496128E+02 -1.150000000000E+01 -2.158896407650E-02 2.544225944843E-01 2.464675065308E-03 2.453647077183E-03 1.260405306390E-19 -2.328874256162E-04 9.771258678818E-01
 2.243484945664E+02 -1.150000000000E+01 1.526596893424E-02 2.589680267939E-01 2.429537579378E-03 2.418975190452E-03 7.657388984985E-20 -2.262941406361E-04 9.754282372453E-01
 2.239384624017E+02 -1.150000000000E+01 5.339438244454E-02 2.635358197344E-01 2.394494226881E-03 2.384398754572E-03 4.032343594500E-20 -2.196409379776E-04 9.736454887032E-01
 2.235078727823E+02 -1.150000000000E+01 9.280081389565E-02 2.681249264605E-01 2.359590188355E-03 2.349961963645E-03 4.331766263744E-20 -2.129351595000E-04 9.717733599231E-01
 2.230556898998E+02 -1.150000000000E+01 1.334866399168E-01 2.727355267388E-01 2.324760837338E-03 2.315599515017E-03 -3.010622145675E-20 -2.061756241147E-04 9.698073473904E-01
 2.225808301919E+02 -1.150000000000E+01 1.754476984904E-01 2.773687707486E-01 2.289890356034E-03 2.281195263297E-03 1.769085692827E-20 -1.993548320704E-04 9.677427399647E-01
 2.220821545359E+02 -1.150000000000E+01 2.186731075572E-01 2.820261259044E-01 2.254911151833E-03 2.246681349545E-03 2.434064399983E-19 -1.924664179691E-04 9.655745849388E-01
 2.215584664553E+02 -1.150000000000E+01 2.631431271739E-01 2.867089412197E-01 2.219844501851E-03 2.212078465498E-03 1.020153597994E-19 -1.855110101286E-04 9.632976802403E-01
 2.210085092630E+02 -1.150000000000E+01 3.088280591454E-01 2.914187370254E-01 2.184611410776E-03 2.177307650210E-03 -2.861031935224E-20 -1.784768675540E-04 9.609065620132E-01
 2.204309630845E+02 -1.150000000000E+01 3.556872180642E-01 2.961558166173E-01 2.148978256337E-03 2.142135941647E-03 7.365808234917E-20 -1.713371548338E-04 9.583954916717E-01
 2.198244413353E+02 -1.150000000000E+01 4.036627198821E-01 3.009187152291E-01 2.112898305071E-03 2.106516453690E-03 3.882986707700E-20 -1.640810506566E-04 9.557584405885E-01
 2.191874874528E+02 -1.150000000000E+01 4.526777136940E-01 3.057046322552E-01 2.076439113922E-03 2.070516139554E-03 -7.286574358767E-20 -1.567061738483E-04 9.529890758819E-01
 2.185185716250E+02 -1.150000000000E+01 5.026363569168E-01 3.105086717139E-01 2.039600293871E-03 2.034133803179E-03 -1.967696073138E-19 -1.492082944537E-04 9.500807461957E-01
 2.178160870036E+02 -1.150000000000E+01 5.534188972243E-01 3.153297361544E-01 2.002372911495E-03 1.997359542122E-03 -7.256645407958E-20 -1.415829834343E-04 9.470264652330E-01
 2.170783459889E+02 -1.150000000000E+01 6.048793821134E-01 3.201636160830E-01 1.964638663658E-03 1.960074415884E-03 -3.984202343644E-20 -1.338149065638E-04 9.438188956038E-01
 2.163035761446E+02 -1.150000000000E+01 6.568399867792E-01 3.250080593774E-01 1.926267586203E-03 1.922147579206E-03 -1.370984383870E-19 -1.258886879611E-04 9.404503310633E-01
 2.154899158016E+02 -1.150000000000E+01 7.090821934759E-01 3.298537737717E-01 1.887163658165E-03 1.883481897863E-03 -4.074146440911E-20 -1.177895864873E-04 9.369126773981E-01
 2.146354100290E+02 -1.150000000000E+01 7.613448502486E-01 3.346789389324E-01 1.847353199056E-03 1.844101980036E-03 -1.647494536321E-20 -1.095113381444E-04 9.331974349086E-01
 2.137380058053E+02 -1.150000000000E+01 8.133111075057E-01 3.394808469006E-01 1.806949972456E-03 1.804119407407E-03 -1.092539576499E-19 -1.010518828915E-04 9.292956774141E-01
 2.127955475988E+02 -1.150000000000E+01 8.646025104994E-01 3.442475000137E-01 1.765917243433E-03 1.763495169619E-03 -1.491970550021E-19 -9.239923008860E-05 9.251980330382E-01
 2.118057726358E+02 -1.150000000000E+01 9.147683326433E-01 3.489702081244E-01 1.724090589751E-03 1.722062083719E-03 -1.438942562191E-19 -8.353760469350E-05 9.208946636337E-01
 2.107663060508E+02 -1.150000000000E+01 9.632722316620E-01 3.536129384808E-01 1.681529440992E-03 1.679875933839E-03 -1.976190643198E-19 -7.446362289671E-05 9.163752436993E-01
 2.096746561963E+02 -1.150000000000E+01 1.009480107516E+00 3.581892075322E-01 1.637796073568E-03 1.636495110888E-03 -2.034033638048E-19 -6.515371262651E-05 9.116289399838E-01
 2.085282097194E+02 -1.150000000000E+01 1.052639314154E+00 3.625774718788E-01 1.592936119072E-03 1.591960050617E-03 -6.327363421246E-20 -5.560902334431E-05 9.066443900845E-01
 2.073242271937E+02 -1.150000000000E+01 1.091863647450E+00 3.667600329890E-01 1.547943685263E-03 1.547258185215E-03 8.656532185148E-20 -4.586538093340E-05 9.014096834508E-01
 2.060598387002E+02 -1.150000000000E+01 1.126106555220E+00 3.707623848556E-01 1.502353501520E-03 1.501917529783E-03 1.341921158473E-19 -3.591234267566E-05 8.959123421747E-01
 2.047320404622E+02 -1.150000000000E+01 1.154152035014E+00 3.744237924213E-01 1.456221419775E-03 1.455985795833E-03 4.598500822400E-20 -2.576911766723E-05 8.901393063574E-01
 2.033376916543E+02 -1.150000000000E+01 1.174599225691E+00 3.776982723933E-01 1.410790724422E-03 1.410697137089E-03 1.391135223401E-20 -1.548424155855E-05 8.840769202361E-01
 2.018735116560E+02 -1.150000000000E+01 1.185847464365E+00 3.805696225816E-01 1.365766827294E-03 1.365747681965E-03 6.826920760327E-20 -5.077300520737E-06 8.777109202433E-01
 2.003360778585E+02 -1.150000000000E+01 1.186077357937E+00 3.829002853072E-01 1.320779897202E-03 1.320757857840E-03 9.092647637136E-20 5.426408615985E-06 8.710264254717E-01
 1.987218242175E+02 -1.150000000000E+01 1.173218942112E+00 3.845994831679E-01 1.277429288809E-03 1.277317263576E-03 -1.128497536421E-20 1.598187100499E-05 8.640079313805E-01
 1.970270403724E+02 -1.150000000000E+01 1.144961127190E+00 3.856037869597E-01 1.236823544096E-03 1.236525124063E-03 -5.041525702391E-20 2.655949639384E-05 8.566393059671E-01
 1.952478683251E+02 -1.150000000000E+01 1.098843585117E+00 3.858035373968E-01 1.197675435352E-03 1.197086860954E-03 -3.413935701522E-19 3.708618691321E-05 8.489037753266E-01
 1.933803004003E+02 -1.150000000000E+01 1.032179682529E+00 3.849106182925E-01 1.161375901359E-03 1.160385652333E-03 -2.490263043156E-19 4.757818730093E-05 8.407839147837E-01
 1.914201758427E+02 -1.150000000000E+01 9.420748183038E-01 3.830243095819E-01 1.129392924521E-03 1.127885348393E-03 -2.325605120009E-19 5.802815845356E-05 8.322616340986E-01
 1.893631690532E+02 -1.150000000000E+01 8.255675604760E-01 3.799320161383E-01 1.098741650482E-03 1.096601871625E-03 -2.157180106260E-19 6.827309239553E-05 8.233181263184E-01
 1.872047718627E+02 -1.150000000000E+01 6.797310901992E-01 3.760368506605E-01 1.065511028498E-03 1.062656601916E-03 -1.497892850140E-19 7.773055729351E-05 8.139337907075E-01
 1.849402774467E+02 -1.150000000000E+01 5.016704837414E-01 3.703745850727E-01 1.043565095696E-03 1.039889905132E-03 4.266775881135E-20 8.732774655506E-05 8.040881628116E-01
 1.826494467209E+02 -1.150000000000E+01 2.966198223158E-01 3.631509143221E-01 1.045361706325E-03 1.040714247032E-03 9.105116742535E-19 9.832230512165E-05 7.941280292215E-01
 1.803596831713E+02 -1.150000000000E+01 6.824335186305E-02 3.551264424878E-01 1.053111251441E-03 1.047419416078E-03 5.023670116229E-19 1.092307413263E-04 7.841725355273E-01
 1.780710644954E+02 -1.150000000000E+01 -1.816638754886E-01 3.455111571910E-01 1.061500735090E-03 1.054733210356E-03 -1.283182328402E-19 1.195873545175E-04 7.742220195454E-01
 1.757836059850E+02 -1.150000000000E+01 -4.512057614263E-01 3.353115459436E-01 1.076584104375E-03 1.068705955577E-03 7.889529125349E-19 1.299384689785E-04 7.642765477609E-01
 1.734972627777E+02 -1.150000000000E+01 -7.383943781652E-01 3.242754801014E-01 1.095605696176E-03 1.086607239781E-03 1.377327661100E-19 1.400810837932E-04 7.543359251205E-01
 1.712119404568E+02 -1.150000000000E+01 -1.041214795944E+00 3.121715163320E-01 1.121288185478E-03 1.111145815019E-03 -1.151594386857E-18 1.504365865522E-04 7.443997411165E-01
 1.689275037911E+02 -1.150000000000E+01 -1.357655967068E+00 2.993016659782E-01 1.154880316040E-03 1.143564757143E-03 -8.383665550306E-19 1.612437255580E-04 7.344674077873E-01
 1.666437996899E+02 -1.150000000000E+01 -1.685832991581E+00 2.857711596241E-01 1.194963733703E-03 1.182459169337E-03 -5.097345943587E-19 1.724007136028E-04 7.245382595212E-01
 1.643606626276E+02 -1.150000000000E+01 -2.023975951446E+00 2.716490399055E-01 1.240593126113E-03 1.226896621356E-03 7.836405155970E-19 1.838234030875E-04 7.146115766418E-01
 1.620779170856E+02 -1.150000000000E+01 -2.370394668058E+00 2.569385474596E-01 1.290914212970E-03 1.276035882155E-03 9.348897057589E-19 1.954185345951E-04 7.046865960244E-01
 1.597953897757E+02 -1.150000000000E+01 -2.723543075476E+00 2.418026877392E-01 1.345080797543E-03 1.329044741856E-03 1.888906005753E-19 2.070749430494E-04 6.947625642420E-01
 1.575129204037E+02 -1.150000000000E+01 -3.082037709930E+00 2.262487511542E-01 1.403013788075E-03 1.385848928850E-03 -7.913526561667E-19 2.187897177774E-04 6.848387843641E-01
 1.552303577629E+02 -1.150000000000E+01 -3.444615864847E+00 2.104557718632E-01 1.463750109352E-03 1.445500331841E-03 -2.653550586305E-18 2.304177407026E-04 6.749145989690E-01
 1.529475599054E+02 -1.150000000000E+01 -3.810112806964E+00 1.943399151869E-01 1.526256637180E-03 1.506983751046E-03 -5.462401243298E-19 2.417828354368E-04 6.649893908932E-01
 1.506644034461E+02 -1.150000000000E+01 -4.177500966861E+00 1.780745049520E-01 1.590173358100E-03 1.569945694553E-03 -3.918231813090E-19 2.528274626059E-04 6.550626236788E-01
 1.483807743848E+02 -1.150000000000E+01 -4.545846930179E+00 1.615434849161E-01 1.655044338267E-03 1.633940196135E-03 -1.906769137612E-18 2.634600483630E-04 6.451338016732E-01
 1.460965760083E+02 -1.150000000000E+01 -4.914299123578E+00 1.447340919927E-01 1.722721883543E-03 1.700801214023E-03 -5.873671560659E-19 2.739449499817E-04 6.352025043839E-01
 1.438117153354E+02 -1.150000000000E+01 -5.282063923896E+00 1.278925015495E-01 1.792003832508E-03 1.769344201654E-03 2.880696208256E-21 2.840747773331E-04 6.252683275453E-01
 1.415261074391E+02 -1.150000000000E+01 -5.648360415510E+00 1.108508070074E-01 1.861000529381E-03 1.837708770143E-03 3.835919496559E-19 2.935108835985E-04 6.153309019093E-01
 1.392396835052E+02 -1.150000000000E+01 -6.012517819386E+00 9.370825958063E-02 1.931323204542E-03 1.907489418305E-03 -6.938108641661E-19 3.024763881293E-04 6.053899282833E-01
 1.369523794821E+02 -1.150000000000E+01 -6.373877863812E+00 7.644975603921E-02 2.003466705721E-03 1.979179774476E-03 -1.457802163782E-18 3.110046446958E-04 5.954451281831E-01
 1.346641306664E+02 -1.150000000000E+01 -6.731761949407E+00 5.911022825840E-02 2.076014551271E-03 2.051384637652E-03 -3.121072040297E-19 3.188321923078E-04 5.854962202886E-01
 1.323748834835E+02 -1.150000000000E+01 -7.085542716362E+00 4.168873191120E-02 2.148607825000E-03 2.123751711078E-03 9.480739218925E-19 3.258670605758E-04 5.755429716674E-01
 1.300845965355E+02 -1.150000000000E+01 -7.434649852100E+00 2.422658593220E-02 2.222364142028E-03 2.197386696826E-03 9.700630374403E-19 3.322461528131E-04 5.655852023285E-01
 1.277932315432E+02 -1.150000000000E+01 -7.778509871978E+00 6.700126795358E-03 2.297673696938E-03 2.272679617051E-03 6.329783578378E-19 3.379691200532E-04 5.556227458399E-01
 1.255007522957E+02 -1.150000000000E+01 -8.116536068656E+00 -1.082672680096E-02 2.373241006711E-03 2.348349409369E-03 5.821942455553E-19 3.428075417505E-04 5.456554447640E-01
 1.232071312500E+02 -1.150000000000E+01 -8.448170283884E+00 -2.829596231470E-02 2.448506670223E-03 2.423842244812E-03 -3.936466532691E-19 3.466410335962E-04 5.356831793478E-01
 1.209123555626E+02 -1.150000000000E+01 -8.772924732075E+00 -4.576814846946E-02 2.524914250345E-03 2.500586430857E-03 -5.817126592787E-19 3.496323603254E-04 5.257058937505E-01
 1.186164084213E+02 -1.150000000000E+01 -9.090250761938E+00 -6.321517677420E-02 2.601775488168E-03 2.577897295095E-03 -6.983738575562E-20 3.516547420589E-04 5.157235148751E-01
 1.163192842039E+02 -1.150000000000E+01 -9.399643376072E+00 -8.061712681243E-02 2.678636321496E-03 2.655323924273E-03 4.279918934549E-19 3.525951441541E-04 5.057360182779E-01
 1.140209880497E+02 -1.150000000000E+01 -9.700639327292E+00 -9.795739018862E-02 2.756644861729E-03 2.733999630320E-03 3.607040980129E-19 3.525741967828E-04 4.957434263029E-01
 1.117215264071E+02 -1.150000000000E+01 -9.992745842090E+00 -1.152189330326E-01 2.835245811497E-03 2.813370644130E-03 -5.023169618684E-19 3.514700081626E-04 4.857457669873E-01
 1.094209133915E+02 -1.150000000000E+01 -1.027548614133E+01 -1.323743565393E-01 2.914555048228E-03 2.893550658402E-03 -5.628329654154E-19 3.492231868796E-04 4.757431017023E-01
 1.071191693164E+02 -1.150000000000E+01 -1.054838675301E+01 -1.494447479035E-01 2.995146179531E-03 2.975105631268E-03 -4.893425432045E-19 3.458350965880E-04 4.657355187671E-01
 1.048163148970E+02 -1.150000000000E+01 -1.081092466640E+01 -1.663832236725E-01 3.076442871924E-03 3.057459562414E-03 4.738829422546E-19 3.411587397949E-04 4.557231082479E-01
 1.025123808792E+02 -1.150000000000E+01 -1.106260496979E+01 -1.831417485736E-01 3.159886497647E-03 3.142044620275E-03 1.153786006467E-18 3.352268467411E-04 4.457060038225E-01
 1.002074002652E+02 -1.150000000000E+01 -1.130288676465E+01 -1.997033065032E-01 3.245685648957E-03 3.229063815995E-03 -1.956872876534E-20 3.279500430380E-04 4.356843489793E-01
 9.790140519307E+01 -1.150000000000E+01 -1.153114120647E+01 -2.159483512829E-01 3.332298189712E-03 3.316978386285E-03 -4.650334367066E-19 3.190342096166E-04 4.256582834481E-01
 9.559444446000E+01 -1.150000000000E+01 -1.174681258385E+01 -2.317906816428E-01 3.420791673892E-03 3.406841443280E-03 -3.007545697119E-19 3.084663897031E-04 4.156280193913E-01
 9.328656854264E+01 -1.150000000000E+01 -1.194926170874E+01 -2.471245990006E-01 3.510153448253E-03 3.497627942777E-03 -1.361492495329E-18 2.960845341352E-04 4.055937762723E-01
 9.097784113852E+01 -1.150000000000E+01 -1.213787851605E+01 -2.617840910121E-01 3.600282335549E-03 3.589222645718E-03 -6.360938541506E-19 2.817576826991E-04 3.955558310371E-01
 8.866833982681E+01 -1.150000000000E+01 -1.231209263970E+01 -2.756350592731E-01 3.691345077707E-03 3.681767430840E-03 4.361425406009E-19 2.654696261035E-04 3.855145209861E-01
 8.635814788839E+01 -1.150000000000E+01 -1.247126308528E+01 -2.885093023329E-01 3.780228680945E-03 3.772130164564E-03 6.954261684334E-20 2.469853680670E-04 3.754702082104E-01
 8.404737041320E+01 -1.150000000000E+01 -1.261490285456E+01 -3.002383713606E-01 3.867130616115E-03 3.860476716537E-03 6.824758957985E-20 2.263628372338E-04 3.654233496226E-01
 8.173612274627E+01 -1.150000000000E+01 -1.274253142965E+01 -3.107061905700E-01 3.952309606616E-03 3.947031245205E-03 -1.255463081881E-19 2.037128752360E-04 3.553744467229E-01
 7.942453263067E+01 -1.150000000000E+01 -1.285372519137E+01 -3.197698084368E-01 4.033314103341E-03 4.029313094319E-03 -1.604975041568E-19 1.790119144632E-04 3.453240549160E-01
 7.711273928401E+01 -1.150000000000E+01 -1.294811938968E+01 -3.273754612593E-01 4.110504025834E-03 4.107650332651E-03 -2.019054767185E-19 1.523852134220E-04 3.352727794957E-01
 7.480089242006E+01 -1.150000000000E+01 -1.302543258586E+01 -3.334486820720E-01 4.184815037478E-03 4.182948053397E-03 -2.110132584364E-19 1.240006281041E-04 3.252212713916E-01
 7.248914724816E+01 -1.150000000000E+01 -1.308534926927E+01 -3.378996983638E-01 4.254379767583E-03 4.253312058865E-03 -7.808105026181E-20 9.392052368975E-05 3.151702054268E-01
 7.017766749649E+01 -1.150000000000E+01 -1.312764853379E+01 -3.407195854185E-01 4.319640117189E-03 4.319159378801E-03 -5.605787065927E-20 6.225216583107E-05 3.051202934630E-01
 6.786662218790E+01 -1.150000000000E+01 -1.315210557711E+01 -3.418693959465E-01 4.380058563309E-03 4.379928149039E-03 -2.776156163567E-20 2.917361027974E-05 2.950722703822E-01
 6.555618538182E+01 -1.150000000000E+01 -1.315851488649E+01 -3.413659112946E-01 4.434665882726E-03 4.434628407049E-03 -9.729575223251E-21 -5.206946956229E-06 2.850268929644E-01
 6.324653611283E+01 -1.150000000000E+01 -1.314674835289E+01 -3.392876891417E-01 4.485627273713E-03 4.485406665870E-03 5.040437562077E-20 -4.075934906622E-05 2.749849396210E-01
 6.093785583498E+01 -1.150000000000E+01 -1.311662078856E+01 -3.356276763881E-01 4.531450925731E-03 4.530754747899E-03 -8.268463280190E-20 -7.732488828949E-05 2.649471992825E-01
 5.863033173080E+01 -1.150000000000E+01 -1.306799063086E+01 -3.304335201477E-01 4.572098876415E-03 4.570618853193E-03 -7.529350822470E-21 -1.148418192336E-04 2.549144857861E-01
 5.632415274077E+01 -1.150000000000E+01 -1.300073392250E+01 -3.238376560640E-01 4.609566872976E-03 4.606979206237E-03 1.755014828783E-19 -1.532774584203E-04 2.448876206120E-01
 5.401951513085E+01 -1.150000000000E+01 -1.291462597302E+01 -3.159264418647E-01 4.644683579329E-03 4.640642768700E-03 2.769147302584E-20 -1.927351555620E-04 2.348674570907E-01
 5.171662069798E+01 -1.150000000000E+01 -1.280944862927E+01 -3.067386425046E-01 4.678777476264E-03 4.672911393541E-03 9.743304363739E-20 -2.333785090181E-04 2.248548725999E-01
 4.941568628045E+01 -1.150000000000E+01 -1.268481227067E+01 -2.962260595139E-01 4.712147034211E-03 4.704047460597E-03 5.065292745404E-19 -2.754050468106E-04 2.148508099150E-01
 4.711693990637E+01 -1.150000000000E+01 -1.254031642092E+01 -2.844071413519E-01 4.746920349971E-03 4.736127290576E-03 2.528210785836E-19 -3.192184599443E-04 2.048562604625E-01
 4.482063540067E+01 -1.150000000000E+01 -1.237535066148E+01 -2.711526908938E-01 4.787526500789E-03 4.773503676883E-03 -1.108380172229E-18 -3.654847156377E-04 1.948723278290E-01
 4.252704751405E+01 -1.150000000000E+01 -1.218925813824E+01 -2.561331118952E-01 4.841048680964E-03 4.823152570765E-03 -5.295331417228E-19 -4.152217217277E-04 1.849002065828E-01
 4.023648233669E+01 -1.150000000000E+01 -1.198124646119E+01 -2.394323258519E-01 4.888870038761E-03 4.866511259855E-03 4.788667780619E-19 -4.664225620424E-04 1.749412275508E-01
 3.796961744594E+01 -1.150000000000E+01 -1.175263227909E+01 -2.213891206180E-01 4.895626000806E-03 4.868428168702E-03 1.971597290566E-19 -5.147581744671E-04 1.650852932432E-01
 3.581299013152E+01 -1.150000000000E+01 -1.151326600592E+01 -2.020750380315E-01 4.871798836084E-03 4.839423363690E-03 2.262028851023E-19 -5.601967837550E-04 1.557086527457E-01
 3.376141510849E+01 -1.150000000000E+01 -1.126498745418E+01 -1.816972991806E-01 4.851919284646E-03 4.813960874227E-03 -4.556594910705E-19 -6.052651069115E-04 1.467887613413E-01
 3.180992587825E+01 -1.150000000000E+01 -1.100954116088E+01 -1.606110540892E-01 4.838014690036E-03 4.794141788140E-03 -1.553414023892E-19 -6.496617148427E-04 1.383040255576E-01
 2.995376520008E+01 -1.150000000000E+01 -1.074857274177E+01 -1.391672427524E-01 4.821640787522E-03 4.771595871722E-03 1.314436411856E-19 -6.925201912954E-04 1.302337617395E-01
 2.818839030274E+01 -1.150000000000E+01 -1.048353827653E+01 -1.176436950240E-01 4.803266070794E-03 4.746808667939E-03 -7.049145427273E-19 -7.339508254908E-04 1.225582187076E-01
 2.650947763074E+01 -1.150000000000E+01 -1.021564482533E+01 -9.616225524914E-02 4.783921474369E-03 4.720781741066E-03 -4.071193400682E-19 -7.743673106260E-04 1.152585983945E-01
 2.491290576952E+01 -1.150000000000E+01 -9.945940547625E+00 -7.486556214102E-02 4.768275503417E-03 4.698066634218E-03 -6.438840653699E-20 -8.149493501758E-04 1.083169816066E-01
 2.339477944627E+01 -1.150000000000E+01 -9.675153687973E+00 -5.373771064275E-02 4.755203340947E-03 4.677476570833E-03 1.090371121281E-19 -8.559687423392E-04 1.017164323751E-01
 2.195140523755E+01 -1.150000000000E+01 -9.403829754363E+00 -3.269782543104E-02 4.743831413254E-03 4.658035053802E-03 6.559135088790E-19 -8.978497628218E-04 9.544089233720E-02
 2.057928075463E+01 -1.150000000000E+01 -9.132376045181E+00 -1.159875201013E-02 4.736759323598E-03 4.642187555621E-03 4.599217036072E-19 -9.415104053758E-04 8.947513371577E-02
 1.927510062648E+01 -1.150000000000E+01 -8.861015018213E+00 9.781253465043E-03 4.730934965658E-03 4.626825687531E-03 2.250718266400E-19 -9.867356320464E-04 8.380478533251E-02
 1.803572389938E+01 -1.150000000000E+01 -8.589926906046E+00 3.164833573373E-02 4.724291198256E-03 4.609826717289E-03 2.809114792103E-19 -1.033343354780E-03 7.841619086685E-02
 1.685816804643E+01 -1.150000000000E+01 -8.319252715562E+00 5.422541314582E-02 4.717616465588E-03 4.591889663497E-03 3.363182470839E-19 -1.081563351035E-03 7.329638281056E-02
 1.573959302732E+01 -1.150000000000E+01 -8.049135781579E+00 7.770004176209E-02 4.710451033039E-03 4.572507118103E-03 -7.008160534710E-19 -1.131284184309E-03 6.843301316228E-02
 1.467729404663E+01 -1.150000000000E+01 -7.779720679564E+00 1.022620450928E-01 4.695991900484E-03 4.545109728450E-03 -7.180746018063E-19 -1.180490330041E-03 6.381432194188E-02
 1.366867946556E+01 -1.150000000000E+01 -7.511214124837E+00 1.279775662178E-01 4.671027683010E-03 4.506672517906E-03 -1.179768875404E-19 -1.227848776216E-03 5.942904115461E-02
 1.271123495559E+01 -1.150000000000E+01 -7.243975086103E+00 1.547951821248E-01 4.641052574414E-03 4.462643941292E-03 -1.648061727064E-19 -1.274118104404E-03 5.526623893733E-02
 1.180256498154E+01 -1.150000000000E+01 -6.978325767957E+00 1.826402164687E-01 4.603119822555E-03 4.410355030820E-03 -3.006502381522E-19 -1.317830157487E-03 5.131549991974E-02
 1.094035549843E+01 -1.150000000000E+01 -6.714658052241E+00 2.113618074584E-01 4.553332960132E-03 4.346243199376E-03 -1.123470980306E-18 -1.357283789080E-03 4.756676303663E-02
 1.012237403278E+01 -1.150000000000E+01 -6.453403477769E+00 2.407338039012E-01 4.493761697528E-03 4.272524478084E-03 -8.479949083647E-19 -1.392357953899E-03 4.401032188167E-02
 9.346477537427E+00 -1.150000000000E+01 -6.194983613964E+00 2.704948013957E-01 4.428061527705E-03 4.192817893586E-03 -2.328067244009E-19 -1.423819158986E-03 4.063685885838E-02
 8.610613908004E+00 -1.150000000000E+01 -5.939792738424E+00 3.004065975129E-01 4.360011573595E-03 4.110763587854E-03 -6.102779299423E-20 -1.452789829969E-03 3.743745177393E-02
 7.912850981309E+00 -1.150000000000E+01 -5.688104594695E+00 3.302927548803E-01 4.294043618630E-03 4.030418386372E-03 1.966410656045E-19 -1.481151732490E-03 3.440369991874E-02
 7.251357950812E+00 -1.150000000000E+01 -5.440127231652E+00 3.600592475382E-01 4.230064458850E-03 3.951550773658E-03 -6.723000639609E-20 -1.509291176286E-03 3.152764326440E-02
 6.624455872824E+00 -1.150000000000E+01 -5.195872103936E+00 3.896678218190E-01 4.170639104411E-03 3.876196181359E-03 -5.993902892918E-19 -1.539010188167E-03 2.880198205576E-02
 6.030535906224E+00 -1.150000000000E+01 -4.955371832346E+00 4.191638307080E-01 4.125553935869E-03 3.813001312706E-03 -6.159346096615E-19 -1.574920786974E-03 2.621972133141E-02
 5.468185621589E+00 -1.150000000000E+01 -4.718366557369E+00 4.486978552634E-01 4.096621220057E-03 3.762926440366E-03 2.035668467171E-19 -1.619171918559E-03 2.377472009386E-02
 4.936075745824E+00 -1.150000000000E+01 -4.484606822760E+00 4.785148608519E-01 4.086937540457E-03 3.727854063897E-03 5.738796935006E-19 -1.674819758922E-03 2.146119889489E-02