TITLE = "023.01"


# Column       1     2     3     4       5      6      7       8       9
VARIABLES =   "X"   "Y"   "Z"   "CP"   "CF"   "CFX"   "CFY"   "CFZ"   "X/C" 

#---------------------------------------------------
#   PARTICIPANT, GRID, AND SOLVER INFORMATION
#---------------------------------------------------
DATASETAUXDATA ParticipantID   = "023.01"
DATASETAUXDATA SubmissionDate  = "26/10/2024"
DATASETAUXDATA Name            = "Baptiste ARNOULD"
DATASETAUXDATA Email           = "baptiste.arnould@polymtl.ca"
DATASETAUXDATA Institution     = "Polytechnique Montreal"
DATASETAUXDATA SolverName      = "CHAMPS"
DATASETAUXDATA BasicAlgorithm  = "RANS"
DATASETAUXDATA TurbulenceModel = "SA"
DATASETAUXDATA GridId          = "Cadence_Grids.REV01 Unstructured"
DATASETAUXDATA Discretization  = "Finite volume"
DATASETAUXDATA Order           = "2"
DATASETAUXDATA DistanceCalc    = "ANALYTICAL"
DATASETAUXDATA Notes           = "X/C is the last variable instead of beeing the 4th one, therefore Cp is the 4th variable, CF is the 5th etc."



ZONE T="023.01 - Mesh 4 - AOA 1.36 - WING SECTION  1"
AUXDATA GridLevel       = "4"
AUXDATA Mach            = "0.73"
AUXDATA Re              = "3000000.0"
AUXDATA Alpha           = "1.36"
AUXDATA Tstatic         = "273.0"
AUXDATA CLtotal         = "7.809335868257e-01"
AUXDATA Eta             = "0.5"
AUXDATA Dt              = "-"
AUXDATA CtuStart        = "-"
AUXDATA CtuAvg          = "-"
AUXDATA GridFileName    = "ONERA-OAT15A_230mmChord_780mmSpan_upZ_2024_09_05_Unstructured_Level-4.cgns"

 2.300000000000E+02 -1.150000000000E+01 5.749310000000E-01 7.772514552375E-02 3.804131005919E-04 2.751863085168E-04 -9.061545258807E-21 -1.303216063321E-04 1.000000000000E+00
 2.300000000000E+02 -1.150000000000E+01 5.270488333333E-01 7.533571085445E-02 5.916377579827E-04 -4.493895419148E-05 -2.641464777270E-20 5.701419598570E-04 1.000000000000E+00
 2.300000000000E+02 -1.150000000000E+01 4.791666666667E-01 9.504440290281E-02 7.003613961056E-04 -1.240127516555E-05 -2.659902722929E-20 7.002474572714E-04 1.000000000000E+00
 2.300000000000E+02 -1.150000000000E+01 4.312845000000E-01 9.311115359780E-02 2.191503848359E-04 -1.478260683853E-06 -1.996513266298E-20 2.191413237057E-04 1.000000000000E+00
 2.300000000000E+02 -1.150000000000E+01 3.834023333333E-01 9.148967502463E-02 1.712880898957E-04 1.306224367306E-06 -1.373496488277E-20 1.712810727167E-04 1.000000000000E+00
 2.300000000000E+02 -1.150000000000E+01 3.355201666667E-01 9.058513291502E-02 2.699592573414E-04 2.511431926522E-06 -7.163284132983E-21 2.699470885745E-04 1.000000000000E+00
 2.300000000000E+02 -1.150000000000E+01 2.876380000000E-01 9.057273822697E-02 4.161316577835E-04 2.497936744131E-06 -5.084724759537E-21 4.161236589692E-04 1.000000000000E+00
 2.300000000000E+02 -1.150000000000E+01 2.397558333333E-01 9.111368429690E-02 5.474880533837E-04 1.943613167144E-06 -4.635374064203E-22 5.474843075190E-04 1.000000000000E+00
 2.300000000000E+02 -1.150000000000E+01 1.918736666667E-01 9.201318978972E-02 6.389424685820E-04 1.161446621093E-06 9.957454354088E-21 6.389412306788E-04 1.000000000000E+00
 2.300000000000E+02 -1.150000000000E+01 1.439915000000E-01 9.316127835454E-02 6.809576759430E-04 2.947192091172E-07 2.770480295817E-20 6.809574634597E-04 1.000000000000E+00
 2.300000000000E+02 -1.150000000000E+01 9.610933333333E-02 9.447229842328E-02 6.706805024670E-04 -5.969284533428E-07 2.092929535423E-20 6.706800779585E-04 1.000000000000E+00
 2.300000000000E+02 -1.150000000000E+01 4.822716666667E-02 9.583613547669E-02 6.089369180862E-04 -1.452030128478E-06 8.850874368491E-21 6.089349692682E-04 1.000000000000E+00
 2.300000000000E+02 -1.150000000000E+01 3.450000000000E-04 9.711815054966E-02 5.000979078942E-04 -2.206390609527E-06 1.076003189033E-20 5.000926330100E-04 1.000000000000E+00
 2.300000000000E+02 -1.150000000000E+01 -4.753716666667E-02 9.817884623616E-02 3.517490213323E-04 -2.808282694490E-06 1.150289346266E-20 3.517365380017E-04 1.000000000000E+00
 2.300000000000E+02 -1.150000000000E+01 -9.541933333333E-02 9.889158265721E-02 1.740794590597E-04 -3.217181709430E-06 1.426961890401E-20 1.740349437529E-04 1.000000000000E+00
 2.300000000000E+02 -1.150000000000E+01 -1.433015000000E-01 9.915346601041E-02 9.971293276605E-05 -3.389519469704E-06 1.411670973234E-20 -2.039022437912E-05 1.000000000000E+00
 2.300000000000E+02 -1.150000000000E+01 -1.911836666667E-01 9.889704781854E-02 2.160146133241E-04 -3.273503199130E-06 8.697201669689E-21 -2.159825104970E-04 1.000000000000E+00
 2.300000000000E+02 -1.150000000000E+01 -2.390658333333E-01 9.811074409543E-02 3.937982739154E-04 -2.811185872593E-06 5.384152538855E-21 -3.937871413820E-04 1.000000000000E+00
 2.300000000000E+02 -1.150000000000E+01 -2.869480000000E-01 9.691221619442E-02 5.347537908575E-04 -2.032044605531E-06 2.749536803276E-21 -5.347494944346E-04 1.000000000000E+00
 2.300000000000E+02 -1.150000000000E+01 -3.348301666667E-01 9.567166832662E-02 6.327270661900E-04 -1.132689038793E-06 9.758077167561E-21 -6.327258418059E-04 1.000000000000E+00
 2.300000000000E+02 -1.150000000000E+01 -3.827123333333E-01 9.535471946318E-02 7.505145801718E-04 -6.129660787052E-07 2.062622040008E-20 -7.505143169194E-04 1.000000000000E+00
 2.300000000000E+02 -1.150000000000E+01 -4.305945000000E-01 9.614246305435E-02 1.071765287758E-03 7.062911564110E-07 3.244665390006E-20 -1.071764475805E-03 1.000000000000E+00
 2.300000000000E+02 -1.150000000000E+01 -4.784766666667E-01 9.996008804360E-02 2.986787586817E-03 -5.752373759002E-05 3.697681660381E-20 -2.986052288407E-03 1.000000000000E+00
 2.300000000000E+02 -1.150000000000E+01 -5.263588333333E-01 2.424643527885E-02 2.761827793385E-03 -3.516516842190E-04 2.104346151193E-20 -2.646437255154E-03 1.000000000000E+00
 2.300000000000E+02 -1.150000000000E+01 -5.742410000000E-01 3.773104438847E-02 1.722797142877E-03 9.703234040397E-04 1.451643297007E-21 -5.372422113082E-05 1.000000000000E+00
 2.299492586772E+02 -1.150000000000E+01 -5.684160157356E-01 1.297521025771E-01 3.056934745592E-03 3.021488823354E-03 3.968932925476E-21 9.352969483476E-05 9.997793855531E-01
 2.298959801885E+02 -1.150000000000E+01 -5.623007186506E-01 1.338079974978E-01 3.292344762230E-03 3.272177186866E-03 4.008187036170E-20 -3.607875167585E-04 9.995477399501E-01
 2.298400375517E+02 -1.150000000000E+01 -5.558817561516E-01 1.403733535589E-01 3.247528553892E-03 3.223988580256E-03 5.033527228449E-20 -3.900271688226E-04 9.993045110942E-01
 2.297812974047E+02 -1.150000000000E+01 -5.491453954244E-01 1.444786248595E-01 3.521555460139E-03 3.498228577673E-03 3.694689531096E-20 -4.046467517901E-04 9.990491191510E-01
 2.297196196810E+02 -1.150000000000E+01 -5.420775603944E-01 1.483020820376E-01 3.598110400177E-03 3.574735294638E-03 5.870967533937E-20 -4.094697612667E-04 9.987809551348E-01
 2.296548572669E+02 -1.150000000000E+01 -5.346638804507E-01 1.518021569664E-01 3.570281266049E-03 3.547212698161E-03 5.760770302060E-20 -4.052039595821E-04 9.984993794214E-01
 2.295868556413E+02 -1.150000000000E+01 -5.268897531984E-01 1.552515493946E-01 3.514975505239E-03 3.492342749336E-03 1.727037509519E-20 -3.982396541477E-04 9.982037201798E-01
 2.295154524955E+02 -1.150000000000E+01 -5.187404238889E-01 1.586984473269E-01 3.457254153794E-03 3.435071085245E-03 1.104841204916E-20 -3.910150656348E-04 9.978932717196E-01
 2.294404773322E+02 -1.150000000000E+01 -5.102010846356E-01 1.621375099817E-01 3.402885560583E-03 3.381144883221E-03 9.823902138428E-21 -3.840432362073E-04 9.975672927489E-01
 2.293617510433E+02 -1.150000000000E+01 -5.012569970446E-01 1.655474023943E-01 3.351811083879E-03 3.330506822050E-03 -2.121485318213E-20 -3.773083267658E-04 9.972250045359E-01
 2.292790844330E+02 -1.150000000000E+01 -4.918930709078E-01 1.689185826410E-01 3.303538616626E-03 3.282665155650E-03 -2.255148347493E-21 -3.707782698907E-04 9.968655844914E-01
 2.291922810868E+02 -1.150000000000E+01 -4.820926143391E-01 1.722513014128E-01 3.257539541253E-03 3.237091706952E-03 5.325173878264E-21 -3.644183707009E-04 9.964881786382E-01
 2.291011337496E+02 -1.150000000000E+01 -4.718380161790E-01 1.755499400631E-01 3.213366376218E-03 3.193339964877E-03 -7.423119455616E-20 -3.581939220143E-04 9.960918858678E-01
 2.290054247106E+02 -1.150000000000E+01 -4.611113651560E-01 1.788189138347E-01 3.170787771345E-03 3.151180377573E-03 -6.323336724964E-20 -3.520749947407E-04 9.956757596115E-01
 2.289049253025E+02 -1.150000000000E+01 -4.498945222278E-01 1.820616357919E-01 3.129795952555E-03 3.110604890443E-03 -3.856304172225E-20 -3.460626275731E-04 9.952388056628E-01
 2.287993946899E+02 -1.150000000000E+01 -4.381690860011E-01 1.852815550621E-01 3.090627051896E-03 3.071846109399E-03 -5.052583058659E-20 -3.402005735452E-04 9.947799769125E-01
 2.286885805740E+02 -1.150000000000E+01 -4.259151957061E-01 1.884834398461E-01 3.053333586391E-03 3.034953744185E-03 -1.742792737045E-21 -3.345162278421E-04 9.942981764089E-01
 2.285722203729E+02 -1.150000000000E+01 -4.131110663735E-01 1.916733315837E-01 3.017637050637E-03 2.999648667038E-03 3.021158593584E-20 -3.289993570479E-04 9.937922624907E-01
 2.284500338865E+02 -1.150000000000E+01 -3.997334385820E-01 1.948577478517E-01 2.983312481153E-03 2.965706026094E-03 7.809325630979E-20 -3.236362918922E-04 9.932610168978E-01
 2.283217294130E+02 -1.150000000000E+01 -3.857583383902E-01 1.980431379600E-01 2.950233982202E-03 2.933000504171E-03 2.310698606300E-20 -3.184146752650E-04 9.927031713607E-01
 2.281870030999E+02 -1.150000000000E+01 -3.711609971663E-01 2.012355032069E-01 2.918144368900E-03 2.901276934062E-03 -3.906272454284E-20 -3.133017794421E-04 9.921174047822E-01
 2.280455298489E+02 -1.150000000000E+01 -3.559151116174E-01 2.044398455258E-01 2.886754663562E-03 2.870248912407E-03 -1.553504225122E-20 -3.082579125129E-04 9.915023036907E-01
 2.278969755747E+02 -1.150000000000E+01 -3.399953542166E-01 2.076600338657E-01 2.855988582885E-03 2.839841475982E-03 -3.400510835610E-20 -3.032662463617E-04 9.908564155421E-01
 2.277409822306E+02 -1.150000000000E+01 -3.233752380050E-01 2.108994124222E-01 2.825869641541E-03 2.810078602769E-03 -5.629400367462E-20 -2.983231164062E-04 9.901781836114E-01
 2.275771781888E+02 -1.150000000000E+01 -3.060279610635E-01 2.141613766725E-01 2.796358002943E-03 2.780920591332E-03 -5.942353028642E-20 -2.934244640651E-04 9.894659921251E-01
 2.274051714939E+02 -1.150000000000E+01 -2.879257584904E-01 2.174493691977E-01 2.767290110997E-03 2.752205058732E-03 -5.603604636170E-20 -2.885498250767E-04 9.887181369300E-01
 2.272245528630E+02 -1.150000000000E+01 -2.690403909901E-01 2.207662245600E-01 2.738409579969E-03 2.723677846188E-03 -3.304248814870E-20 -2.836636983525E-04 9.879328385346E-01
 2.270348888249E+02 -1.150000000000E+01 -2.493438220570E-01 2.241135777034E-01 2.709602483650E-03 2.695226551204E-03 -5.234051859541E-21 -2.787444487896E-04 9.871082122823E-01
 2.268357264301E+02 -1.150000000000E+01 -2.288088835694E-01 2.274920227203E-01 2.680888292885E-03 2.666871296167E-03 -6.476343342650E-20 -2.737854339988E-04 9.862422888266E-01
 2.266265893655E+02 -1.150000000000E+01 -2.074083254763E-01 2.309015982033E-01 2.652243339982E-03 2.638588767858E-03 -5.056257126416E-20 -2.687804006822E-04 9.853329972413E-01
 2.264069766498E+02 -1.150000000000E+01 -1.851149103082E-01 2.343422892944E-01 2.623713993033E-03 2.610424582792E-03 -2.155319511874E-20 -2.637373588652E-04 9.843781593471E-01
 2.261763651104E+02 -1.150000000000E+01 -1.619017845637E-01 2.378148226871E-01 2.595451302756E-03 2.582528082930E-03 -8.430490663539E-20 -2.586790978181E-04 9.833755004802E-01
 2.259342009346E+02 -1.150000000000E+01 -1.377403641301E-01 2.413212773344E-01 2.567489226481E-03 2.554932019988E-03 -1.532315523270E-19 -2.536177248114E-04 9.823226127590E-01
 2.256799056632E+02 -1.150000000000E+01 -1.126013231074E-01 2.448649542926E-01 2.539777784122E-03 2.527585689633E-03 -1.613041690946E-19 -2.485565706897E-04 9.812169811444E-01
 2.254128710623E+02 -1.150000000000E+01 -8.645502731078E-02 2.484499166006E-01 2.512253164159E-03 2.500425259156E-03 -7.526574966976E-20 -2.434913121458E-04 9.800559611403E-01
 2.251324577981E+02 -1.150000000000E+01 -5.927158758738E-02 2.520799243207E-01 2.484623049966E-03 2.473160614662E-03 6.135585286377E-20 -2.383835687835E-04 9.788367730351E-01
 2.248379967904E+02 -1.150000000000E+01 -3.102280084425E-02 2.557568875944E-01 2.456606516263E-03 2.445513328947E-03 1.614248715936E-19 -2.331919425921E-04 9.775565077841E-01
 2.245287812394E+02 -1.150000000000E+01 -1.684948688119E-03 2.594805697973E-01 2.428282380483E-03 2.417562942556E-03 2.538838717061E-19 -2.279099727743E-04 9.762120923453E-01
 2.242040712466E+02 -1.150000000000E+01 2.876287627424E-02 2.632496428031E-01 2.399768740569E-03 2.389427566592E-03 3.057614040924E-19 -2.225398592862E-04 9.748003097677E-01
 2.238630890416E+02 -1.150000000000E+01 6.033920444870E-02 2.670627360033E-01 2.371091890739E-03 2.361132958365E-03 1.910154597535E-19 -2.170848676607E-04 9.733177784420E-01
 2.235050177846E+02 -1.150000000000E+01 9.305993272470E-02 2.709190609634E-01 2.342287219785E-03 2.332713748776E-03 -3.163482226703E-21 -2.115508668652E-04 9.717609468895E-01
 2.231289995976E+02 -1.150000000000E+01 1.269388503849E-01 2.748185309830E-01 2.313324844048E-03 2.304139548722E-03 -2.753991867539E-19 -2.059378659693E-04 9.701260852068E-01
 2.227341335344E+02 -1.150000000000E+01 1.619864973153E-01 2.787614836757E-01 2.284152779088E-03 2.275358025319E-03 -2.650998035486E-19 -2.002429630099E-04 9.684092762367E-01
 2.223194733459E+02 -1.150000000000E+01 1.982093391698E-01 2.827483265412E-01 2.254729167300E-03 2.246327140218E-03 2.684580335120E-20 -1.944615454495E-04 9.666064058518E-01
 2.218840251869E+02 -1.150000000000E+01 2.356087834741E-01 2.867793624757E-01 2.225039291627E-03 2.217031895521E-03 7.822680548806E-20 -1.885909157696E-04 9.647131529865E-01
 2.214267451846E+02 -1.150000000000E+01 2.741798813801E-01 2.908549448175E-01 2.195121768294E-03 2.187510355966E-03 1.443149355174E-21 -1.826333248548E-04 9.627249790635E-01
 2.209465369795E+02 -1.150000000000E+01 3.139109782454E-01 2.949754570560E-01 2.164902126028E-03 2.157688072492E-03 -1.260413213168E-19 -1.765788359764E-04 9.606371173024E-01
 2.204422490782E+02 -1.150000000000E+01 3.547825000669E-01 2.991406711777E-01 2.134201094962E-03 2.127386257221E-03 -1.978690396420E-19 -1.704067657578E-04 9.584445612097E-01
 2.199126718374E+02 -1.150000000000E+01 3.967625631839E-01 3.033491908670E-01 2.103008909286E-03 2.096594972807E-03 -2.730587154382E-19 -1.641101839295E-04 9.561420514669E-01
 2.193565346269E+02 -1.150000000000E+01 4.398061122921E-01 3.075988692743E-01 2.071386997155E-03 2.065375121794E-03 -3.850749141929E-19 -1.576881356614E-04 9.537240635950E-01
 2.187725029151E+02 -1.150000000000E+01 4.838547183446E-01 3.118862624438E-01 2.039289646881E-03 2.033680513907E-03 -4.203070698604E-19 -1.511335287319E-04 9.511847952832E-01
 2.181591749906E+02 -1.150000000000E+01 5.288333479947E-01 3.162078672662E-01 2.006718927498E-03 2.001512393034E-03 -4.940230035383E-19 -1.444442402791E-04 9.485181521329E-01
 2.175150786107E+02 -1.150000000000E+01 5.746477821658E-01 3.205606425680E-01 1.973669267556E-03 1.968864417464E-03 -2.761179793256E-19 -1.376154614299E-04 9.457177330899E-01
 2.168386675737E+02 -1.150000000000E+01 6.211827487150E-01 3.249403136327E-01 1.940037160237E-03 1.935632520739E-03 -1.443587805567E-19 -1.306338422670E-04 9.427768155377E-01
 2.161283178255E+02 -1.150000000000E+01 6.682951786309E-01 3.293419204254E-01 1.905841648907E-03 1.901834693904E-03 -2.871652984365E-19 -1.234947279601E-04 9.396883383717E-01
 2.153823236516E+02 -1.150000000000E+01 7.158101707363E-01 3.337620437811E-01 1.870943422720E-03 1.867330846822E-03 -2.092497757404E-19 -1.161807745914E-04 9.364448854416E-01
 2.145988938279E+02 -1.150000000000E+01 7.635181711991E-01 3.381923116411E-01 1.834569890549E-03 1.831348394234E-03 7.662545949497E-20 -1.086382183633E-04 9.330386688169E-01
 2.137761471639E+02 -1.150000000000E+01 8.111640737295E-01 3.426160342420E-01 1.795083790150E-03 1.792251282971E-03 2.393614346893E-19 -1.007614656528E-04 9.294615094084E-01
 2.129121084218E+02 -1.150000000000E+01 8.584435403695E-01 3.470361065184E-01 1.752934431674E-03 1.750482122982E-03 -3.730294643666E-20 -9.264303045933E-05 9.257048192251E-01
 2.120047038671E+02 -1.150000000000E+01 9.049944005994E-01 3.514206070825E-01 1.713423462254E-03 1.711328373641E-03 -2.130697964150E-19 -8.465249743149E-05 9.217595820309E-01
 2.110857481681E+02 -1.150000000000E+01 9.488284320639E-01 3.556589335287E-01 1.678856280586E-03 1.677091805131E-03 -1.769209357408E-19 -7.688858653274E-05 9.177641224700E-01
 2.101666443671E+02 -1.150000000000E+01 9.892635278663E-01 3.596326079593E-01 1.645233580006E-03 1.643774946705E-03 -2.073186698347E-19 -6.919326432654E-05 9.137680189872E-01
 2.092473984679E+02 -1.150000000000E+01 1.026215963023E+00 3.633472995188E-01 1.610341390138E-03 1.609161624228E-03 -1.558275369520E-19 -6.155069990293E-05 9.097712976865E-01
 2.083280215601E+02 -1.150000000000E+01 1.059599664611E+00 3.668104024090E-01 1.575172509666E-03 1.574242842375E-03 -1.651840181685E-20 -5.401928881268E-05 9.057740067829E-01
 2.074085245615E+02 -1.150000000000E+01 1.089324995403E+00 3.700236491705E-01 1.540729411132E-03 1.540020313845E-03 9.439516102217E-20 -4.663344583150E-05 9.017761937456E-01
 2.064889193432E+02 -1.150000000000E+01 1.115298406633E+00 3.730025142344E-01 1.507270923588E-03 1.506752571376E-03 1.465719586238E-20 -3.940063097752E-05 8.977779101879E-01
 2.055692189331E+02 -1.150000000000E+01 1.137427067327E+00 3.757333409355E-01 1.474824779567E-03 1.474467215900E-03 7.151605983345E-20 -3.232060521963E-05 8.937792127527E-01
 2.046494376174E+02 -1.150000000000E+01 1.155623147995E+00 3.782289170526E-01 1.443296947722E-03 1.443070084744E-03 1.320954701697E-19 -2.539442071996E-05 8.897801635540E-01
 2.037295908322E+02 -1.150000000000E+01 1.169800494986E+00 3.804768739602E-01 1.412694354369E-03 1.412568062424E-03 3.857727653508E-20 -1.862551357134E-05 8.857808297053E-01
 2.028096951851E+02 -1.150000000000E+01 1.179877453266E+00 3.824789419340E-01 1.383198828460E-03 1.383143052326E-03 -7.601088584834E-21 -1.201881822031E-05 8.817812834135E-01
 2.018897684312E+02 -1.150000000000E+01 1.185781098593E+00 3.842378687075E-01 1.354732497465E-03 1.354717427448E-03 -2.592868106503E-20 -5.573936214079E-06 8.777816018748E-01
 2.009698293193E+02 -1.150000000000E+01 1.187439699025E+00 3.857549944380E-01 1.327292652499E-03 1.327288818621E-03 3.327984081005E-20 7.106444500706E-07 8.737818666055E-01
 2.000498975757E+02 -1.150000000000E+01 1.184785827315E+00 3.870405815103E-01 1.300684978734E-03 1.300663327816E-03 6.971060091126E-20 6.837503630189E-06 8.697821633727E-01
 1.991299938462E+02 -1.150000000000E+01 1.177756199961E+00 3.880771268049E-01 1.275038686135E-03 1.274970681735E-03 -1.358836707251E-20 1.280578430183E-05 8.657825819401E-01
 1.982101396465E+02 -1.150000000000E+01 1.166290077072E+00 3.888726924189E-01 1.250822562863E-03 1.250680377834E-03 -5.826121165689E-20 1.861305266457E-05 8.617832158542E-01
 1.972903569423E+02 -1.150000000000E+01 1.150351122068E+00 3.894204739633E-01 1.227894829657E-03 1.227651560176E-03 -2.607118935497E-23 2.425592162353E-05 8.577841606186E-01
 1.963706679276E+02 -1.150000000000E+01 1.129917356981E+00 3.897225154773E-01 1.206026308325E-03 1.205656201993E-03 1.110590011732E-19 2.972929380634E-05 8.537855127289E-01
 1.954510950823E+02 -1.150000000000E+01 1.104968343229E+00 3.897758191703E-01 1.185346182010E-03 1.184824466842E-03 3.360719618646E-19 3.504341078543E-05 8.497873699231E-01
 1.945316608918E+02 -1.150000000000E+01 1.075493054499E+00 3.895842543872E-01 1.165944479547E-03 1.165247286889E-03 1.032370765794E-19 4.021229923322E-05 8.457898299644E-01
 1.936123878702E+02 -1.150000000000E+01 1.041484475999E+00 3.891605388928E-01 1.147847133317E-03 1.146951645313E-03 -1.667005963285E-19 4.524341543826E-05 8.417929907401E-01
 1.926932984764E+02 -1.150000000000E+01 1.002939538183E+00 3.884970332895E-01 1.131203089910E-03 1.130087478967E-03 -1.130672964853E-19 5.014978406110E-05 8.377969498974E-01
 1.917744141372E+02 -1.150000000000E+01 9.598783674195E-01 3.875924885782E-01 1.115957279113E-03 1.114600881727E-03 -1.791908987034E-19 5.493712832082E-05 8.338018005967E-01
 1.908557555673E+02 -1.150000000000E+01 9.123295684063E-01 3.864615592363E-01 1.102154876826E-03 1.100538294207E-03 -1.257687596399E-19 5.961308292045E-05 8.298076329012E-01
 1.899373428401E+02 -1.150000000000E+01 8.603258342467E-01 3.851172434798E-01 1.089910069416E-03 1.088014982449E-03 -2.092398235677E-20 6.419150090615E-05 8.258145340874E-01
 1.890191940562E+02 -1.150000000000E+01 8.039244251861E-01 3.835521647120E-01 1.079011191704E-03 1.076820802092E-03 1.143673178435E-20 6.867045434172E-05 8.218225828531E-01
 1.881013259165E+02 -1.150000000000E+01 7.431916950264E-01 3.817772961180E-01 1.069267632281E-03 1.066766754910E-03 1.864139304161E-19 7.304652692852E-05 8.178318518108E-01
 1.871837541362E+02 -1.150000000000E+01 6.781948487668E-01 3.797895612847E-01 1.060718403077E-03 1.057892543202E-03 -2.767151300509E-20 7.733712427448E-05 8.138424092878E-01
 1.862664930262E+02 -1.150000000000E+01 6.090074690108E-01 3.775913518803E-01 1.053395989835E-03 1.050231148639E-03 -3.528390416051E-19 8.156015906679E-05 8.098543175051E-01
 1.853495556849E+02 -1.150000000000E+01 5.357058954162E-01 3.751888875016E-01 1.047388721461E-03 1.043871471974E-03 3.869794036535E-19 8.573323946358E-05 8.058676334127E-01
 1.844329540120E+02 -1.150000000000E+01 4.583686249946E-01 3.725778593377E-01 1.043049463579E-03 1.039166159560E-03 8.170129887776E-19 8.989365074477E-05 8.018824087479E-01
 1.835166968744E+02 -1.150000000000E+01 3.770967179090E-01 3.697669540617E-01 1.040395207728E-03 1.036133101320E-03 -2.488358284333E-19 9.405145311916E-05 7.978986820628E-01
 1.826007906371E+02 -1.150000000000E+01 2.920043575494E-01 3.667735646097E-01 1.038970984134E-03 1.034320086984E-03 -2.218384213268E-19 9.817456240733E-05 7.939164810308E-01
 1.816852402311E+02 -1.150000000000E+01 2.032058576984E-01 3.635889558081E-01 1.038646487298E-03 1.033597819591E-03 5.111624940259E-19 1.022639950659E-04 7.899358270919E-01
 1.807700490536E+02 -1.150000000000E+01 1.108170196007E-01 3.602146679335E-01 1.039651921227E-03 1.034195618771E-03 5.403573855598E-19 1.063562170445E-04 7.859567350157E-01
 1.798552190092E+02 -1.150000000000E+01 1.495492364019E-02 3.566667356777E-01 1.042007390869E-03 1.036133661591E-03 8.821651233070E-19 1.104662184960E-04 7.819792130834E-01
 1.789407506685E+02 -1.150000000000E+01 -8.426333794657E-02 3.529441603393E-01 1.045776218677E-03 1.039475116503E-03 2.153491583107E-19 1.146122272432E-04 7.780032637761E-01
 1.780266428399E+02 -1.150000000000E+01 -1.867164637461E-01 3.490682068109E-01 1.050829669619E-03 1.044092429560E-03 -2.501979909962E-19 1.187888906875E-04 7.740288819124E-01
 1.771128923596E+02 -1.150000000000E+01 -2.922772262723E-01 3.450271042164E-01 1.056942461765E-03 1.049762216396E-03 6.362761954387E-19 1.229783915469E-04 7.700560537373E-01
 1.761994947239E+02 -1.150000000000E+01 -4.008180859291E-01 3.408263941620E-01 1.064268108506E-03 1.056637418151E-03 7.895834051862E-19 1.272053926851E-04 7.660847596690E-01
 1.752864441219E+02 -1.150000000000E+01 -5.122110610539E-01 3.364849773133E-01 1.072673306898E-03 1.064586081527E-03 3.979165010684E-19 1.314607906510E-04 7.621149744430E-01
 1.743737333681E+02 -1.150000000000E+01 -6.263268223780E-01 3.319815561902E-01 1.082171255700E-03 1.073621651903E-03 -4.710211961886E-19 1.357527542543E-04 7.581466668176E-01
 1.734613533035E+02 -1.150000000000E+01 -7.430360457059E-01 3.273382037779E-01 1.092928827496E-03 1.083910117548E-03 -1.366884732357E-18 1.401074588402E-04 7.541797969718E-01
 1.725492968471E+02 -1.150000000000E+01 -8.622091046841E-01 3.225619215090E-01 1.104807953138E-03 1.095314906660E-03 -1.278295132068E-18 1.445125201205E-04 7.502143341177E-01
 1.716375510923E+02 -1.150000000000E+01 -9.837169610885E-01 3.176577759844E-01 1.117715413413E-03 1.107744114799E-03 -4.760058634810E-19 1.489593691321E-04 7.462502221403E-01
 1.707261053114E+02 -1.150000000000E+01 -1.107430235652E+00 3.126242058931E-01 1.131607776255E-03 1.121155063415E-03 -4.739113668833E-19 1.534464614762E-04 7.422874143973E-01
 1.698149471420E+02 -1.150000000000E+01 -1.233220428803E+00 3.074725280945E-01 1.146420873476E-03 1.135484223998E-03 -1.344421160218E-18 1.579711308894E-04 7.383258571390E-01
 1.689040644860E+02 -1.150000000000E+01 -1.360967269175E+00 3.022172807764E-01 1.161999367294E-03 1.150577714340E-03 -1.118619741788E-18 1.625179136420E-04 7.343654977651E-01
 1.679934452510E+02 -1.150000000000E+01 -1.490556071918E+00 2.968459091118E-01 1.178445619529E-03 1.166537130197E-03 -8.459764313310E-19 1.671046146217E-04 7.304062836999E-01
 1.670830766733E+02 -1.150000000000E+01 -1.621872390992E+00 2.913771446910E-01 1.195773519434E-03 1.183376559019E-03 -9.458369932934E-19 1.717355558567E-04 7.264481594493E-01
 1.661729456278E+02 -1.150000000000E+01 -1.754803837244E+00 2.858089636116E-01 1.213843436730E-03 1.200958513156E-03 7.554394907257E-19 1.763902822974E-04 7.224910679468E-01
 1.652630388066E+02 -1.150000000000E+01 -1.889240908322E+00 2.801456652791E-01 1.232741335023E-03 1.219368661016E-03 2.169895972792E-18 1.810811167786E-04 7.185349513329E-01
 1.643533420815E+02 -1.150000000000E+01 -2.025074440917E+00 2.743970779597E-01 1.252343861361E-03 1.238485362625E-03 9.371075671886E-19 1.857911807991E-04 7.145797481806E-01
 1.634438424327E+02 -1.150000000000E+01 -2.162197613456E+00 2.685651908308E-01 1.272535386593E-03 1.258194614148E-03 -3.347409164838E-19 1.905044032991E-04 7.106254018815E-01
 1.625345257594E+02 -1.150000000000E+01 -2.300512033178E+00 2.626627703551E-01 1.293342184129E-03 1.278522658851E-03 3.509783139688E-19 1.952260499020E-04 7.066718511279E-01
 1.616253790657E+02 -1.150000000000E+01 -2.439920840548E+00 2.566823495727E-01 1.314757240458E-03 1.299462862744E-03 6.031278831063E-19 1.999558583411E-04 7.027190394161E-01
 1.607163888560E+02 -1.150000000000E+01 -2.580328295700E+00 2.506395242277E-01 1.336650917812E-03 1.320887144798E-03 -8.550138114747E-19 2.046762710830E-04 6.987669080697E-01
 1.598075426779E+02 -1.150000000000E+01 -2.721647439725E+00 2.445384320842E-01 1.358919653050E-03 1.342693303383E-03 -1.379172261621E-18 2.093727116187E-04 6.948154029476E-01
 1.588988285095E+02 -1.150000000000E+01 -2.863795787194E+00 2.383756390460E-01 1.381672255575E-03 1.364989106850E-03 -5.323561840508E-19 2.140622261937E-04 6.908644717804E-01
 1.579902333194E+02 -1.150000000000E+01 -3.006691146883E+00 2.321594071730E-01 1.404862114827E-03 1.387728893156E-03 -2.122344351996E-19 2.187368579714E-04 6.869140579106E-01
 1.570817475779E+02 -1.150000000000E+01 -3.150253910727E+00 2.258919992445E-01 1.428409245890E-03 1.410834240913E-03 -6.270424909147E-19 2.233819641161E-04 6.829641199040E-01
 1.561733573192E+02 -1.150000000000E+01 -3.294408851824E+00 2.195746628352E-01 1.452395276201E-03 1.434386293065E-03 -9.973172776328E-19 2.280083978785E-04 6.790145970398E-01
 1.552650515834E+02 -1.150000000000E+01 -3.439080483438E+00 2.132145540150E-01 1.476704984638E-03 1.458271382411E-03 -1.495845639308E-18 2.325984841384E-04 6.750654416671E-01
 1.543568187969E+02 -1.150000000000E+01 -3.584196289666E+00 2.068136990211E-01 1.501177678720E-03 1.482330903478E-03 -1.295278925827E-18 2.371274282573E-04 6.711166034647E-01
 1.534486496154E+02 -1.150000000000E+01 -3.729691486261E+00 2.003737542135E-01 1.525931025249E-03 1.506681080518E-03 3.001250871133E-19 2.416144548295E-04 6.671680418061E-01
 1.525405337380E+02 -1.150000000000E+01 -3.875502854482E+00 1.938974316870E-01 1.550996380735E-03 1.531352928740E-03 1.278057407514E-18 2.460648962140E-04 6.632197119044E-01
 1.516324609371E+02 -1.150000000000E+01 -4.021567771659E+00 1.873864880755E-01 1.576259643561E-03 1.556234108574E-03 2.666070259790E-19 2.504592467549E-04 6.592715692919E-01
 1.507244216087E+02 -1.150000000000E+01 -4.167828015521E+00 1.808439406751E-01 1.601743950052E-03 1.581347727268E-03 -1.136198358711E-18 2.547999841816E-04 6.553235722115E-01
 1.498164064176E+02 -1.150000000000E+01 -4.314227344014E+00 1.742712923572E-01 1.627474191363E-03 1.606718558017E-03 -1.166567815589E-18 2.590901642207E-04 6.513756800764E-01
 1.489084072917E+02 -1.150000000000E+01 -4.460709458364E+00 1.676704769538E-01 1.653343270018E-03 1.632241019752E-03 5.459729185652E-20 2.633120223780E-04 6.474278577899E-01
 1.480004139658E+02 -1.150000000000E+01 -4.607221824352E+00 1.610428600386E-01 1.679308929141E-03 1.657873495552E-03 8.151517773262E-19 2.674583181132E-04 6.434800607208E-01
 1.470924202723E+02 -1.150000000000E+01 -4.753714814389E+00 1.543887323771E-01 1.705449227509E-03 1.683693206855E-03 9.705667683432E-19 2.715405102850E-04 6.395322620536E-01
 1.461844179903E+02 -1.150000000000E+01 -4.900139300945E+00 1.477089799461E-01 1.731801871233E-03 1.709737870663E-03 7.300559375560E-20 2.755614673592E-04 6.355844260447E-01
 1.452763976554E+02 -1.150000000000E+01 -5.046446253229E+00 1.410046779843E-01 1.758377219231E-03 1.736018475012E-03 -5.188018852394E-20 2.795179303747E-04 6.316365115453E-01
 1.443683527372E+02 -1.150000000000E+01 -5.192585916743E+00 1.342787337222E-01 1.785192552519E-03 1.762552775514E-03 8.323162543999E-19 2.834080411484E-04 6.276884901617E-01
 1.434602751721E+02 -1.150000000000E+01 -5.338508748575E+00 1.275338068424E-01 1.812119863094E-03 1.789214448371E-03 1.268180157960E-19 2.872107021129E-04 6.237403268353E-01
 1.425521559659E+02 -1.150000000000E+01 -5.484166637352E+00 1.207716357958E-01 1.838987183899E-03 1.815833215542E-03 -5.053268963125E-19 2.909011865697E-04 6.197919824602E-01
 1.416439898301E+02 -1.150000000000E+01 -5.629518408157E+00 1.139922345252E-01 1.865851987620E-03 1.842465203478E-03 -4.228563697113E-19 2.944919163343E-04 6.158434340441E-01