TITLE = "005.02 ALPHA 3.60 GRIDLEVEL 2"

VARIABLES = "ITERATION"  "GRID_LEVEL"  "GRID_SIZE"  "CONTINUITY"  "MOMENTUMX"  "MOMENTUMY"  "MOMENTUMZ"  "ENERGY"  "TURB1"  "TURB2"  "CL_TOT"  "CD_TOT"  "CM_TOT"

DATASETAUXDATA ParticipantID   = "005"
DATASETAUXDATA SubmissionDate  = "10-31-2024"
DATASETAUXDATA Name            = "Jeffrey A. Housman"
DATASETAUXDATA Email           = "jeffrey.a.housman@nasa.gov"
DATASETAUXDATA Institution     = "NASA Ames Research Center"
DATASETAUXDATA SolverName      = "LAVA Curvilinear"
DATASETAUXDATA BasicAlgorithm  = "RANS"
DATASETAUXDATA TurbulenceModel = "SA-RC-comp-neg"
DATASETAUXDATA GridId          = "Multiblock"
DATASETAUXDATA Discretization  = "Finite difference"
DATASETAUXDATA Order           = "2"
DATASETAUXDATA DistanceCalc    = "Exact"
DATASETAUXDATA Notes           = " "

ZONE T = "005.02 - Alpha 3.60 - Grid Level 2"
AUXDATA Tstatic         = "271.0"
AUXDATA Deltat          = "-999"
AUXDATA GridFileName    = "ONERA-OAT15A_230mmChord_780mmSpan_upZ_2024_06_25-Structured_23mm_Level-2.x"
AUXDATA Misc            = " "
 0 2 119662 1.7790409606718982e+05 3.6349815429902216e+05 3.0557669290377504e-14 1.5786890298348854e+05 1.8174339029576728e+05 5.1554828618597222e+05 -999 9.05962285e-03 4.530022353e-01 -5.77571129e-03
 1 2 119662 2.4210544631392413e+05 2.9222983895025938e+05 2.7494830259826349e-14 1.3096018184638303e+05 2.3542429842135467e+05 3.3186803543865797e+05 -999 5.25671136e-02 4.476940767e-01 -2.33039581e-02
 2 2 119662 2.8993021061109036e+05 2.6143460872815805e+05 2.5168224081401606e-14 1.4528453559307157e+05 2.7788178729493561e+05 2.1324271285184857e+05 -999 1.00416253e-01 4.539433951e-01 -4.19499075e-02
 3 2 119662 3.3941661671703227e+05 2.4021038218124615e+05 2.3367661043007195e-14 1.6753784796479033e+05 3.2420904415874137e+05 1.3596661217371214e+05 -999 1.41561806e-01 4.643083702e-01 -5.89136126e-02
 4 2 119662 3.8952594597278856e+05 2.2138140294905752e+05 2.1963549300886418e-14 1.9328566269371391e+05 3.7487505193740485e+05 8.5286465745210342e+04 -999 1.76759954e-01 4.771908456e-01 -7.20781705e-02
 5 2 119662 4.3684188297792361e+05 2.2122608032208067e+05 2.0853117947473045e-14 2.2232235812577762e+05 4.2653680496249121e+05 4.2793085207687982e+04 -999 2.05037793e-01 4.904839527e-01 -8.19815248e-02
 6 2 119662 3.9880398445123760e+05 2.5819277612714711e+05 1.9974271513409591e-14 2.3406538996275119e+05 3.9139649807388062e+05 3.4510146076104604e+04 -999 2.24991956e-01 4.967299591e-01 -8.94968780e-02
 7 2 119662 3.9510946103434090e+05 2.7663569367161818e+05 1.9176324569276880e-14 2.3796224732193607e+05 3.8449659399448539e+05 2.8491718103817318e+04 -999 2.40584820e-01 4.983296190e-01 -9.58509826e-02
 8 2 119662 4.2939490664721455e+05 2.7419251444575662e+05 1.8604646501545319e-14 2.3441336003286034e+05 4.3183758280901826e+05 2.4420519318460530e+04 -999 2.52232642e-01 4.940858827e-01 -1.00652933e-01
 9 2 119662 4.4897375759929797e+05 2.5440582260863791e+05 1.8195430865193017e-14 2.3491509349021211e+05 4.5505236705426453e+05 2.1645457548494454e+04 -999 2.63257712e-01 4.863852709e-01 -1.04791403e-01
 10 2 119662 4.6417047587135504e+05 2.5120178844419200e+05 1.7993631239463556e-14 2.2864001663220572e+05 4.8070594707435044e+05 1.9337193164391436e+04 -999 2.71116029e-01 4.804599785e-01 -1.07531634e-01
 11 2 119662 3.8433559539157763e+05 2.1678818019795837e+05 1.7785120223262805e-14 2.1061448193018869e+05 3.9217403253056278e+05 1.7294025403654203e+04 -999 2.80445346e-01 4.731533753e-01 -1.10831041e-01
 12 2 119662 3.6309347869476827e+05 2.1867883474615065e+05 1.7638215852398941e-14 2.0261136062892285e+05 3.6536868247396569e+05 1.5693339096501984e+04 -999 2.87909941e-01 4.673066060e-01 -1.13420456e-01
 13 2 119662 3.4434158575836365e+05 1.9300164621040953e+05 1.7598755200178212e-14 1.9263218243926231e+05 3.4332648304273479e+05 1.4377685778176778e+04 -999 2.93809534e-01 4.622390579e-01 -1.15508225e-01
 14 2 119662 3.7654232219670177e+05 2.0153408319482789e+05 1.7604642868684534e-14 1.9032546426949516e+05 3.8761492871642002e+05 1.3217004820635737e+04 -999 2.97911855e-01 4.580666106e-01 -1.17027034e-01
 15 2 119662 3.4155295852909860e+05 1.7010146482068097e+05 1.7570765020384714e-14 1.7954939760566090e+05 3.4782821321803355e+05 1.2260019521392394e+04 -999 3.00803358e-01 4.545560936e-01 -1.18172901e-01
 16 2 119662 3.1837707095364237e+05 1.7715984435025422e+05 1.7461604793184176e-14 1.7211288304021469e+05 3.2468787986142415e+05 1.1181457471984957e+04 -999 3.03319887e-01 4.508630527e-01 -1.19237812e-01
 17 2 119662 2.8341201834433508e+05 1.6964381807985442e+05 1.7335840981723228e-14 1.5824642517471197e+05 2.8882143853931094e+05 1.0292958961385868e+04 -999 3.05836826e-01 4.467681212e-01 -1.20324999e-01
 18 2 119662 2.9386059492759308e+05 1.6487217320035247e+05 1.7229132518647559e-14 1.5460906419123599e+05 2.9889926622423617e+05 9.5329314554512421e+03 -999 3.08724827e-01 4.416032352e-01 -1.21558108e-01
 19 2 119662 2.6649869307957863e+05 1.4661976631470644e+05 1.7117160719208073e-14 1.4347318610701177e+05 2.7134857757273567e+05 8.8792594252436720e+03 -999 3.10410823e-01 4.381649228e-01 -1.22236567e-01
 20 2 119662 3.1064112739209563e+05 1.7183005430082016e+05 1.6999133046781107e-14 1.4891516008890438e+05 3.2575956033506390e+05 8.3176934251075600e+03 -999 3.12259245e-01 4.339625284e-01 -1.22939987e-01
 21 2 119662 2.5831716392194372e+05 1.5884204505685816e+05 1.6862114844209341e-14 1.3337783991608908e+05 2.7348795218084147e+05 7.6660303207050692e+03 -999 3.13474921e-01 4.303515773e-01 -1.23366001e-01
 22 2 119662 2.1720275946167848e+05 1.3008769040468671e+05 1.6697161580785252e-14 1.2001248257564325e+05 2.2227123152007855e+05 7.0905039571732132e+03 -999 3.14780792e-01 4.259327925e-01 -1.23808600e-01
 23 2 119662 1.9980609486433683e+05 1.2489958046048554e+05 1.6545283940243395e-14 1.1180820517112142e+05 2.0161558661189859e+05 6.5895418908783531e+03 -999 3.15823973e-01 4.218884737e-01 -1.24153348e-01
 24 2 119662 2.2695214275668102e+05 1.2744099284199625e+05 1.6424128388199435e-14 1.1100573915183137e+05 2.3610817103035937e+05 6.1590486727198404e+03 -999 3.16769324e-01 4.178634535e-01 -1.24461825e-01
 25 2 119662 2.0385828668146135e+05 1.0633538109901617e+05 1.6348413141166053e-14 1.0337653418750301e+05 2.1040597451864954e+05 5.7884892939920146e+03 -999 3.17383176e-01 4.150208936e-01 -1.24661161e-01
 26 2 119662 1.8256410162606422e+05 1.0717337584054616e+05 1.6201136203445962e-14 9.6580357272859575e+04 1.8944489840276717e+05 5.3343007731746447e+03 -999 3.17947934e-01 4.118759404e-01 -1.24838206e-01
 27 2 119662 1.5655488728321620e+05 1.0103844683528561e+05 1.6011518996959948e-14 8.7068327465302529e+04 1.6180813485788397e+05 4.9394007909904312e+03 -999 3.18576265e-01 4.081703412e-01 -1.25036453e-01
 28 2 119662 1.4696909429711019e+05 9.4515408912020022e+04 1.5811964926495566e-14 8.0124618015801840e+04 1.4962699837027278e+05 4.5973387009872567e+03 -999 3.19188062e-01 4.043298693e-01 -1.25232503e-01
 29 2 119662 1.5650883981542685e+05 9.1024301548258794e+04 1.5619332482482209e-14 7.7479684444270431e+04 1.6033104908559308e+05 4.2953212697380332e+03 -999 3.19727582e-01 4.007295493e-01 -1.25408402e-01
 30 2 119662 1.4924986200443792e+05 8.5217215668257049e+04 1.5485806104877356e-14 7.3363563937321305e+04 1.5579877092185506e+05 4.0329406630928338e+03 -999 3.20073209e-01 3.982819780e-01 -1.25521807e-01
 31 2 119662 1.2777800181308853e+05 7.9302898100689155e+04 1.5294941414573398e-14 6.7069247160016050e+04 1.3410703975069977e+05 3.7258671861843291e+03 -999 3.20409660e-01 3.954090881e-01 -1.25626508e-01
 32 2 119662 1.0665276906706157e+05 7.4937492829381634e+04 1.5051749203547618e-14 6.0230950673831794e+04 1.1057604454338124e+05 3.4492681694091552e+03 -999 3.20796794e-01 3.919946543e-01 -1.25746411e-01
 33 2 119662 9.8255740359932621e+04 7.0608243017784887e+04 1.4805960107785698e-14 5.4994580203427904e+04 9.9802800428878603e+04 3.2079022854328909e+03 -999 3.21168567e-01 3.885827777e-01 -1.25861286e-01
 34 2 119662 1.0677318399616348e+05 7.0335052930497972e+04 1.4585531618401936e-14 5.2954664777087390e+04 1.1034075008505328e+05 2.9968227266920308e+03 -999 3.21491573e-01 3.854919426e-01 -1.25960864e-01
 35 2 119662 1.0348872447439001e+05 6.4667233507896133e+04 1.4417352027419859e-14 5.0764792351288990e+04 1.0660298477298688e+05 2.8164916710322068e+03 -999 3.21728659e-01 3.831316932e-01 -1.26033479e-01
 36 2 119662 8.8664728932043537e+04 6.3320550295554007e+04 1.4220035246668924e-14 4.6359491613428203e+04 9.3316889429285337e+04 2.6030704911898465e+03 -999 3.21934025e-01 3.806420222e-01 -1.26090739e-01
 37 2 119662 7.1766810538756486e+04 5.7949111998839777e+04 1.3982573641241181e-14 4.1160656800585028e+04 7.5404995286594465e+04 2.4123929725622211e+03 -999 3.22171269e-01 3.777630558e-01 -1.26156907e-01
 38 2 119662 6.2655390493421321e+04 5.2917962203335206e+04 1.3706824732770142e-14 3.6753014272309127e+04 6.3613454139172340e+04 2.2395487197118255e+03 -999 3.22432100e-01 3.746018355e-01 -1.26229877e-01
 39 2 119662 6.5638566361541089e+04 5.1427210445741141e+04 1.3436000425280393e-14 3.4561379673953030e+04 6.7323169903857372e+04 2.0855852075581720e+03 -999 3.22681384e-01 3.715792184e-01 -1.26300122e-01
 40 2 119662 6.5171789209947761e+04 4.9681088029998369e+04 1.3243727995999560e-14 3.3138185406814075e+04 6.7647433114576343e+04 1.9543723841907481e+03 -999 3.22862324e-01 3.693674306e-01 -1.26351658e-01
 41 2 119662 5.5521897821990759e+04 4.7185955862125309e+04 1.3031780926783985e-14 3.0446071009507054e+04 5.8708297325072053e+04 1.7935351505792044e+03 -999 3.23020450e-01 3.670431413e-01 -1.26392975e-01
 42 2 119662 4.4288684606517636e+04 4.4439206565195978e+04 1.2772620409917632e-14 2.7372729091292935e+04 4.6717991427416891e+04 1.6387301713199633e+03 -999 3.23211952e-01 3.642663256e-01 -1.26443776e-01
 43 2 119662 3.7729817528156200e+04 4.1511908602044416e+04 1.2478707908556028e-14 2.4607110891516768e+04 3.8412331113114698e+04 1.5085844102598355e+03 -999 3.23428924e-01 3.611566927e-01 -1.26502234e-01
 44 2 119662 3.7741445301380088e+04 4.0026933410809273e+04 1.2206779514668809e-14 2.3050807172476907e+04 3.8524152053997168e+04 1.3980468880757956e+03 -999 3.23624372e-01 3.583698608e-01 -1.26555937e-01
 45 2 119662 3.8760394591968128e+04 3.9721456114161840e+04 1.1978104551546300e-14 2.2160630483747318e+04 4.0407429185203124e+04 1.3007897522419416e+03 -999 3.23786803e-01 3.560425465e-01 -1.26601788e-01
 46 2 119662 3.3221910679690416e+04 3.7438321986271527e+04 1.1762720863944806e-14 2.0736921394695655e+04 3.5013905276857702e+04 1.1734978993317079e+03 -999 3.23920256e-01 3.537469036e-01 -1.26636423e-01
 47 2 119662 2.7072686086305337e+04 3.5378557364857537e+04 1.1490354331323015e-14 1.9143919904708626e+04 2.8312262547195773e+04 1.0642900262589096e+03 -999 3.24084370e-01 3.509615460e-01 -1.26679795e-01
 48 2 119662 2.2987491803143766e+04 3.3528280546807866e+04 1.1192020635604705e-14 1.7627927763098432e+04 2.3232428559165015e+04 9.6956240441648538e+02 -999 3.24273794e-01 3.477756120e-01 -1.26731002e-01
 49 2 119662 2.1913963841138586e+04 3.2203214843598660e+04 1.0908711298310720e-14 1.6563470114537497e+04 2.1904305911292773e+04 8.8978547418836399e+02 -999 3.24451545e-01 3.447812572e-01 -1.26780700e-01
 50 2 119662 2.1595924423407843e+04 3.1295730390050005e+04 1.0645261289614897e-14 1.5805020982553371e+04 2.1740827161992602e+04 8.2173212925965333e+02 -999 3.24606519e-01 3.421294014e-01 -1.26826127e-01
 51 2 119662 1.9322616930933058e+04 3.0024806515339107e+04 1.0405193799087819e-14 1.4963636396327736e+04 1.9492311965977475e+04 7.4095834207226926e+02 -999 3.24725616e-01 3.394965239e-01 -1.26855068e-01
 52 2 119662 1.6873564389374507e+04 2.8643414874965289e+04 1.0120451148567860e-14 1.3983218913905974e+04 1.6847458860963427e+04 6.6834553807288478e+02 -999 3.24867667e-01 3.362800292e-01 -1.26888260e-01
 53 2 119662 1.5077536842416259e+04 2.7240264985388341e+04 9.7786409208970947e-15 1.2948095012063286e+04 1.4801234087797378e+04 6.1405643034146647e+02 -999 3.25025302e-01 3.325435421e-01 -1.26922834e-01
 54 2 119662 1.4156643596037615e+04 2.6052128069289884e+04 9.4304000464477684e-15 1.2049751228012959e+04 1.3876623912384430e+04 5.6734368243629569e+02 -999 3.25169090e-01 3.288535304e-01 -1.26951647e-01
 55 2 119662 1.3604130949505861e+04 2.5099548535321108e+04 9.1522359039190284e-15 1.1318981231049898e+04 1.3479557739996364e+04 5.3232494847176315e+02 -999 3.25286076e-01 3.254987822e-01 -1.26972786e-01
 56 2 119662 1.2541061373756706e+04 2.4026901662523964e+04 8.8591100494280322e-15 1.0570865546164723e+04 1.2544491298449779e+04 5.0017585935332875e+02 -999 3.25349009e-01 3.219030124e-01 -1.26954055e-01
 57 2 119662 1.1465159277023855e+04 2.2812647389799640e+04 8.5150250483846881e-15 9.7160164395680185e+03 1.1622910535197250e+04 4.8265092441446791e+02 -999 3.25410193e-01 3.173755536e-01 -1.26913663e-01
 58 2 119662 1.0669383307514237e+04 2.1570671727866124e+04 8.1646565055470059e-15 8.8724786015881873e+03 1.1052079272895195e+04 4.7934894801353209e+02 -999 3.25455898e-01 3.120948980e-01 -1.26842371e-01
 59 2 119662 1.0242458566455545e+04 2.0524999085866857e+04 7.8154366181403611e-15 8.2178196599612311e+03 1.0889221223195316e+04 4.8539291266730942e+02 -999 3.25474243e-01 3.069336055e-01 -1.26747899e-01
 60 2 119662 1.0050352541792101e+04 1.9674442422449050e+04 7.5226809692022147e-15 7.7619540402464136e+03 1.0944904275169645e+04 4.8275899364926386e+02 -999 3.25472109e-01 3.020709606e-01 -1.26640649e-01
 61 2 119662 9.6590916027697604e+03 1.8709477952602341e+04 7.2342961255958818e-15 7.3149197042003971e+03 1.0818777347253108e+04 4.9242263893116893e+02 -999 3.25407551e-01 2.961767812e-01 -1.26440648e-01
 62 2 119662 9.4718899911251247e+03 1.7647228406713530e+04 6.9260181402328536e-15 7.0072573302911806e+03 1.0868717861881227e+04 5.2408708604869639e+02 -999 3.25340902e-01 2.884114615e-01 -1.26152341e-01
 63 2 119662 9.5797821200966300e+03 1.6678775464866289e+04 6.6527338105148647e-15 6.9710704110617808e+03 1.1124842447871833e+04 5.5619919811520106e+02 -999 3.25316861e-01 2.795328260e-01 -1.25808690e-01
 64 2 119662 9.8353384218013525e+03 1.5924902757098611e+04 6.4456771307245837e-15 7.1268209162484181e+03 1.1443929914912433e+04 5.7580973925311730e+02 -999 3.25384242e-01 2.707967262e-01 -1.25490769e-01
 65 2 119662 1.0075706641720790e+04 1.5328534596807922e+04 6.3061110465109582e-15 7.3383943077054528e+03 1.1696056694455086e+04 5.9010760424778925e+02 -999 3.25507315e-01 2.625127728e-01 -1.25267118e-01
 66 2 119662 1.0110811835884655e+04 1.4468974698167034e+04 6.1632284927812625e-15 7.1879292635216389e+03 1.1695427417125598e+04 6.3024876079223338e+02 -999 3.25972430e-01 2.511755538e-01 -1.25110751e-01
 67 2 119662 1.0103899852030294e+04 1.3635526466703694e+04 6.0813455166240675e-15 7.0241426944633604e+03 1.1556760679216397e+04 7.4976115501272079e+02 -999 3.27055766e-01 2.360247203e-01 -1.25184995e-01
 68 2 119662 9.9589145174948953e+03 1.3170731269840227e+04 5.9847731426252856e-15 6.8436738741964473e+03 1.1227631766992725e+04 1.0883416562210618e+03 -999 3.28758602e-01 2.205549921e-01 -1.25751661e-01
 69 2 119662 9.6937385005939304e+03 1.3014570099973131e+04 5.8481951503557770e-15 6.7289212582281707e+03 1.0769824167460187e+04 1.9312006349917192e+03 -999 3.30758133e-01 2.063069767e-01 -1.26858484e-01
 70 2 119662 9.3587941274724926e+03 1.3118829572413890e+04 5.6239944211701845e-15 6.7382230381456311e+03 1.0219032418924211e+04 3.1143485971457280e+03 -999 3.32748675e-01 1.928960100e-01 -1.28485912e-01
 71 2 119662 8.4988497771185885e+03 1.2098376866111101e+04 5.2380633460368409e-15 6.7655307510907796e+03 9.0466980883578053e+03 5.2930825417730803e+03 -999 3.34809105e-01 1.729481867e-01 -1.31834406e-01
 72 2 119662 7.6102789867100209e+03 1.1338822350073930e+04 4.8314221236357892e-15 6.7630621677765557e+03 7.9115517259239259e+03 7.0890202104539212e+03 -999 3.34076524e-01 1.552277794e-01 -1.35369418e-01
 73 2 119662 6.9802821231597845e+03 1.0768015501425893e+04 4.3770557196220640e-15 6.8051855918045067e+03 7.1576466209520413e+03 1.0363950309596548e+04 -999 3.29424890e-01 1.409524237e-01 -1.37758118e-01
 74 2 119662 6.6006000059604776e+03 1.0867894804071646e+04 3.9975634583801116e-15 6.2911050328573629e+03 6.7475646620154184e+03 1.4547369376412220e+04 -999 3.23715061e-01 1.330009191e-01 -1.38092168e-01
 75 2 119662 6.4452037007431836e+03 1.1022059456198853e+04 3.7753084141892795e-15 5.8122680445567521e+03 6.5639479322902680e+03 1.5650305017494000e+04 -999 3.20590805e-01 1.297782204e-01 -1.37800221e-01
 76 2 119662 5.5535221237385858e+03 1.0574102602427987e+04 3.6145740148603724e-15 5.0179420172126547e+03 5.6007419452477006e+03 1.5589997515366957e+04 -999 3.12697093e-01 1.230905403e-01 -1.36321353e-01
 77 2 119662 4.8459823611544080e+03 1.0816191680724278e+04 3.5025245942480396e-15 4.2981871067798493e+03 4.8380220729615394e+03 1.2878208899570207e+04 -999 3.02232182e-01 1.150901575e-01 -1.33303720e-01
 78 2 119662 4.4470574754950694e+03 1.0319588926246950e+04 3.3309303944662703e-15 3.7556829255100283e+03 4.4550622885465973e+03 9.1857934761535744e+03 -999 2.96737119e-01 1.103690995e-01 -1.30706570e-01
 79 2 119662 4.2414171443610958e+03 9.5940173649480566e+03 3.2382963037318146e-15 3.5301185971530076e+03 4.2422491537733340e+03 6.4092761472306011e+03 -999 2.94791436e-01 1.077998483e-01 -1.29224786e-01
 80 2 119662 4.2196805888689069e+03 8.8674312991450061e+03 3.1956972295993213e-15 3.4895185400728051e+03 4.1593194973852706e+03 4.7693386640800763e+03 -999 2.93636060e-01 1.048740120e-01 -1.27640968e-01
 81 2 119662 3.7252920030419650e+03 7.5312430340852889e+03 3.2861870991301243e-15 3.4603308601529129e+03 3.6542478141324023e+03 3.7113124728477410e+03 -999 2.95500744e-01 1.011617424e-01 -1.26226213e-01
 82 2 119662 3.5500338762761758e+03 6.3318115620851104e+03 3.5310992348957704e-15 3.5773817103990827e+03 3.4231964635022341e+03 3.9761079007345497e+03 -999 3.03166413e-01 9.603526734e-02 -1.25529306e-01
 83 2 119662 3.7718702690045448e+03 5.9885593171181745e+03 3.6342133528330414e-15 3.6051324513988611e+03 3.5892285990982614e+03 5.2251820296938149e+03 -999 3.14827842e-01 9.227874711e-02 -1.26896754e-01
 84 2 119662 4.0348781765055037e+03 6.1983386603753443e+03 3.5731115293862748e-15 3.5767982816685794e+03 3.8628837595268997e+03 5.5588246683642628e+03 -999 3.25655571e-01 8.967354323e-02 -1.29031233e-01
 85 2 119662 4.1264472253260501e+03 6.5144481640646636e+03 3.4567571907677012e-15 3.5186685375354537e+03 3.9541676983014027e+03 5.9011277437792014e+03 -999 3.34052416e-01 8.792506713e-02 -1.31056622e-01
 86 2 119662 3.7532335834019391e+03 5.7134565896679433e+03 3.6185016992652538e-15 3.2187473310468631e+03 3.7768055550221270e+03 1.3611635867159061e+04 -999 3.57131161e-01 8.418425752e-02 -1.37632529e-01
 87 2 119662 3.6219945984832175e+03 5.7994617573577689e+03 3.6945555017394610e-15 2.9677033238455515e+03 3.7894230318437512e+03 1.1239278014684904e+04 -999 3.80056078e-01 8.112848500e-02 -1.45489854e-01
 88 2 119662 3.5130084502512318e+03 6.4714983068877991e+03 3.6015877345173511e-15 2.7748746097847861e+03 4.3553288586587869e+03 9.2059908903147079e+03 -999 3.97195379e-01 7.912421021e-02 -1.52030679e-01
 89 2 119662 3.2093925442854043e+03 6.6888666165668428e+03 3.4302823852810875e-15 2.6351095325538804e+03 4.8061577328556623e+03 5.9860588162729573e+03 -999 4.07693732e-01 7.797217743e-02 -1.56130025e-01
 90 2 119662 2.9249523126225467e+03 5.2806180311279286e+03 3.2858776828260347e-15 2.4990295554286004e+03 3.6529663983992596e+03 5.3139125094987112e+03 -999 4.14343997e-01 7.727249631e-02 -1.58699714e-01
 91 2 119662 2.3689880816340224e+03 2.6810686727759930e+03 3.4606477409873422e-15 2.1073789075406144e+03 2.2127684069415814e+03 6.0168229461721612e+03 -999 4.40261345e-01 7.480768330e-02 -1.68467555e-01
 92 2 119662 2.1247654557079377e+03 2.4042644954083480e+03 3.6003227321540506e-15 1.8713604323927427e+03 2.0018847395953278e+03 6.7957333784059310e+03 -999 4.67266112e-01 7.271002104e-02 -1.77905825e-01
 93 2 119662 1.9600048037202102e+03 2.3217377076461335e+03 3.6226235948577114e-15 1.6865855859250103e+03 1.8730232752226143e+03 7.5610970177858089e+03 -999 4.96198156e-01 7.092587193e-02 -1.86776421e-01
 94 2 119662 1.9272258071006297e+03 2.3955219090440692e+03 3.6509003142809408e-15 1.4617956547148588e+03 1.8600041577753036e+03 8.9514287140656270e+03 -999 5.27208161e-01 6.954007143e-02 -1.94740568e-01
 95 2 119662 2.0261640117885161e+03 2.4745720496215986e+03 3.7402866254237032e-15 1.2199858367275217e+03 1.9825759276177325e+03 1.0677971414377624e+04 -999 5.59419152e-01 6.860926918e-02 -2.01366487e-01
 96 2 119662 1.6116585292036896e+03 2.0751602678986865e+03 3.6244785015117221e-15 7.5598711468566637e+02 1.5563431580127226e+03 1.1398619242970692e+04 -999 6.14849308e-01 6.834835347e-02 -2.07928851e-01
 97 2 119662 1.5262723269062562e+03 1.6799752756146370e+03 3.9159147380703169e-15 5.3068476673216526e+02 1.4803870053307642e+03 9.0251255768111278e+03 -999 6.79300299e-01 6.968962847e-02 -2.12111131e-01
 98 2 119662 1.6471706697068887e+03 1.4016814522352922e+03 4.3820997242796911e-15 4.3531881884456510e+02 1.6292819007618475e+03 6.8510516062245097e+03 -999 7.41300481e-01 7.253523535e-02 -2.12672300e-01
 99 2 119662 1.8460086001260909e+03 1.3734781928662082e+03 4.9062039656144012e-15 3.6584363328908512e+02 1.8479498599146652e+03 5.4725163554426790e+03 -999 7.86775820e-01 7.549243969e-02 -2.10469561e-01
 100 2 119662 1.8439037970730815e+03 1.2984316698663185e+03 5.5664928628119063e-15 3.2537362551589121e+02 1.8386172435322528e+03 4.5407174069423154e+03 -999 8.12798586e-01 7.742696215e-02 -2.08104155e-01
 101 2 119662 1.1054591187630951e+03 1.0117615705669357e+03 1.1306906642554836e-13 2.8870037260665612e+02 1.0641611802312393e+03 4.3338010254964429e+03 -999 8.68828534e-01 8.067507252e-02 -2.02312349e-01
 102 2 119662 8.6799357649630110e+02 8.7277463026199439e+02 1.9544230309477771e-13 2.2950448516386749e+02 8.1061471380389060e+02 4.5687313199618757e+03 -999 9.13739918e-01 8.070074747e-02 -1.97090204e-01
 103 2 119662 7.5843330675600475e+02 7.7335833318664072e+02 2.8995806234115078e-13 1.9730043334795303e+02 6.8724254621581292e+02 4.6907351247907263e+03 -999 9.52797005e-01 7.840203532e-02 -1.93999113e-01
 104 2 119662 6.9543215361422335e+02 7.0753581918350858e+02 3.5527619719509527e-13 1.8327499624939833e+02 6.2193540387956477e+02 4.7344011879069458e+03 -999 9.83417220e-01 7.522829603e-02 -1.92769676e-01
 105 2 119662 6.7171419357704428e+02 6.9953048995389975e+02 3.7333313584431382e-13 1.7882898249218363e+02 5.9791231247856729e+02 4.5517144911385194e+03 -999 9.98790438e-01 7.354775384e-02 -1.92317188e-01
 106 2 119662 6.3303462817350032e+02 8.9801607234347364e+02 3.8659746051980437e-13 1.8196136182032694e+02 5.6417135877023725e+02 7.3963309321865063e+03 -999 1.01269446e+00 7.253123251e-02 -1.91902099e-01
 107 2 119662 6.0871678697112873e+02 1.1194431175760510e+03 4.9669738358646585e-13 1.8568638350489439e+02 5.4803653815625387e+02 1.1027054486460602e+04 -999 1.02749396e+00 7.152266630e-02 -1.91324784e-01
 108 2 119662 6.0609140937473762e+02 8.6383559639766588e+02 6.4069022582423570e-13 1.7484013940581363e+02 5.3480003369028691e+02 1.0951500382277101e+04 -999 1.04236994e+00 7.054197355e-02 -1.90556407e-01
 109 2 119662 6.1454506400282708e+02 8.0805500163509021e+02 7.1630003063333282e-13 1.7393678807089154e+02 5.4103232070208139e+02 1.4574760558918566e+04 -999 1.05336829e+00 6.982680774e-02 -1.89855623e-01
 110 2 119662 6.2842523703156655e+02 7.9231481782998424e+02 7.5358186013535182e-13 1.7760248546897219e+02 5.5565467496185613e+02 1.8241646124768573e+04 -999 1.06199765e+00 6.924383693e-02 -1.89179849e-01
 111 2 119662 6.0436989609326179e+02 8.4767139584006975e+02 6.4304934221381907e-13 2.1192118113189082e+02 5.3365758942357354e+02 2.0116270033011962e+04 -999 1.06728013e+00 6.816070977e-02 -1.87533920e-01
 112 2 119662 6.0436989609326190e+02 9.2768376122205154e+02 6.4091926060854130e-13 2.1749840734258066e+02 5.3699382457275021e+02 1.7266692776648139e+04 -999 1.06728013e+00 6.816070977e-02 -1.87533920e-01
 113 2 119662 6.1495089012096662e+02 9.8513051198863809e+02 6.3876673983653809e-13 2.4270157458118950e+02 5.5004135467877472e+02 9.9958899360123560e+03 -999 1.07016571e+00 6.783787142e-02 -1.87053774e-01
 114 2 119662 6.2512561023921717e+02 8.7253352124647768e+02 4.5548989153121710e-13 1.8930665625665728e+02 5.5492465960572542e+02 1.2196078815324207e+04 -999 1.07249528e+00 6.763213310e-02 -1.86924948e-01
 115 2 119662 6.7022151736480953e+02 7.9293389936797530e+02 3.6470967325799861e-13 1.7867675961998611e+02 5.9577293521741205e+02 1.0332628056989008e+04 -999 1.07532390e+00 6.747710410e-02 -1.86939552e-01
 116 2 119662 7.0429943190367499e+02 7.2542443460104278e+02 2.5380045453381384e-13 1.7326395922177983e+02 6.2446940027643154e+02 8.2108919697010788e+03 -999 1.07867719e+00 6.736734151e-02 -1.87054759e-01
 117 2 119662 7.2368406859435891e+02 6.7826595284771997e+02 2.3935692457943257e-13 1.7295691404279805e+02 6.3942123626415264e+02 8.5896020359893555e+03 -999 1.08213723e+00 6.731194592e-02 -1.87250018e-01
 118 2 119662 7.3944193077389218e+02 6.3988806646785008e+02 2.2332713747793149e-13 1.7539310623082542e+02 6.5227923151825416e+02 8.8700048257761227e+03 -999 1.08630516e+00 6.725995095e-02 -1.87484909e-01
 119 2 119662 7.5329170573810109e+02 6.1757259559193915e+02 2.0245312458805095e-13 1.7592689906082168e+02 6.6522225753587168e+02 8.9957698433345577e+03 -999 1.08909890e+00 6.720587414e-02 -1.87573683e-01
 120 2 119662 7.7009880453144035e+02 6.0333842582860655e+02 1.8301706851758430e-13 1.7707153168557204e+02 6.8164276941140349e+02 9.1064437192873029e+03 -999 1.09134233e+00 6.711756717e-02 -1.87534212e-01
 121 2 119662 7.7194548138675600e+02 5.8205807320738779e+02 1.2010512816817442e-13 1.7194050625804701e+02 6.8144658028913966e+02 9.3199836701395561e+03 -999 1.09486223e+00 6.696331996e-02 -1.87400699e-01
 122 2 119662 7.9413653802914337e+02 5.6311225716804404e+02 9.7339258361751630e-14 1.7058194887999483e+02 7.0350073068349491e+02 9.4541432007070853e+03 -999 1.09878068e+00 6.672316624e-02 -1.87066923e-01
 123 2 119662 8.1832203900131333e+02 5.4796808703997067e+02 9.6025463418694765e-14 1.6256104331227286e+02 7.3369018907847158e+02 9.4589754316506278e+03 -999 1.10240667e+00 6.639220475e-02 -1.86483196e-01
 124 2 119662 8.1458833195684997e+02 5.3864804922790506e+02 1.0483284518377175e-13 1.5578596390028500e+02 7.2966494383215581e+02 9.3457172509246320e+03 -999 1.10497725e+00 6.606899271e-02 -1.85822494e-01
 125 2 119662 8.5038349315834910e+02 5.4101399644836317e+02 1.0948352156591410e-13 1.5244635802986269e+02 7.6278984877382800e+02 9.2973918641757773e+03 -999 1.10701635e+00 6.576693439e-02 -1.85153245e-01
 126 2 119662 8.0864226587182986e+02 5.2627156596264990e+02 7.5957329116671297e-14 1.4841579022686119e+02 7.2328557848278115e+02 9.3057785782858009e+03 -999 1.10904373e+00 6.551812724e-02 -1.84595440e-01
 127 2 119662 7.8864203863801481e+02 5.1992333043213603e+02 7.5368558343649879e-14 1.4588190367261325e+02 7.0240044147012134e+02 9.4064511448556150e+03 -999 1.11139134e+00 6.523576723e-02 -1.83915952e-01
 128 2 119662 8.2766926896800237e+02 5.2269712797790123e+02 7.9296219934902730e-14 1.4215317451116471e+02 7.4205591626928765e+02 9.3861901258010203e+03 -999 1.11408179e+00 6.489754887e-02 -1.83044097e-01
 129 2 119662 8.3444356442900744e+02 5.2179832850791411e+02 8.3717306800736141e-14 1.3736768946961871e+02 7.5727803257994265e+02 9.3581243864479493e+03 -999 1.11678270e+00 6.471933422e-02 -1.82549990e-01
 130 2 119662 8.0951926558967000e+02 5.1962244712934501e+02 8.6152524342379533e-14 1.3751623231263483e+02 7.2629888014751805e+02 9.1751134890969824e+03 -999 1.11868072e+00 6.467968863e-02 -1.82423055e-01
 131 2 119662 7.8757080603285942e+02 5.1393062631801581e+02 8.0222720887127378e-14 1.3738936190283630e+02 6.9772924245650620e+02 9.3516226951128010e+03 -999 1.12205858e+00 6.464693210e-02 -1.82296527e-01
 132 2 119662 7.7073220201728452e+02 5.0812892720127388e+02 1.0247414495736536e-13 1.3223685985201706e+02 6.8324924803157182e+02 9.3304646123397852e+03 -999 1.12654902e+00 6.468216996e-02 -1.82353853e-01
 133 2 119662 7.6455402792026473e+02 5.0279482700550318e+02 1.0560506737687305e-13 1.3081707430214146e+02 6.7588192090835935e+02 9.1478670510582178e+03 -999 1.12983594e+00 6.469137730e-02 -1.82376418e-01
 134 2 119662 7.8339006337583771e+02 5.0328933874141961e+02 1.0368740205776609e-13 1.2955447015842341e+02 7.0075959396851067e+02 9.0872009223263303e+03 -999 1.13242622e+00 6.467120129e-02 -1.82337585e-01
 135 2 119662 7.7048617618741548e+02 5.0708827749914860e+02 9.9180223747428609e-14 1.3045931308204328e+02 6.8638130854093117e+02 9.1607079606849711e+03 -999 1.13483805e+00 6.460207377e-02 -1.82185314e-01
 136 2 119662 7.4182719614175790e+02 4.9515526516165568e+02 7.9435495996246527e-14 1.2574998218552750e+02 6.5333354775019461e+02 9.1481376794800835e+03 -999 1.13742578e+00 6.469829529e-02 -1.82458785e-01
 137 2 119662 7.3559603516939217e+02 4.9092558832265604e+02 9.2914107514083124e-14 1.2392748306174136e+02 6.4518117477033900e+02 9.0089279905671719e+03 -999 1.14061289e+00 6.480642062e-02 -1.82787102e-01
 138 2 119662 7.3735355339085288e+02 4.8878539151656190e+02 1.1723967234853245e-13 1.2293136257132971e+02 6.4767779602821111e+02 9.3480947941128179e+03 -999 1.14427707e+00 6.489486480e-02 -1.83099258e-01
 139 2 119662 7.3312738914789668e+02 4.8021924973805886e+02 1.3009560150984610e-13 1.2040645766039506e+02 6.4665802280344224e+02 9.3671360447191510e+03 -999 1.14718174e+00 6.493111257e-02 -1.83280983e-01
 140 2 119662 7.1867743307417743e+02 4.8339916381717370e+02 1.3543503245143075e-13 1.2351664921323962e+02 6.3162309599976641e+02 1.0518302245451845e+04 -999 1.14865811e+00 6.493782271e-02 -1.83351039e-01
 141 2 119662 6.6175794214297400e+02 4.5980124888519890e+02 9.9424536585713418e-14 1.1368531965828151e+02 5.7667441762187275e+02 1.0039907567788034e+04 -999 1.15055610e+00 6.492573941e-02 -1.83417743e-01