TITLE = "005.02 ALPHA 2.50 GRIDLEVEL 6"

VARIABLES = "ITERATION"  "GRID_LEVEL"  "GRID_SIZE"  "CONTINUITY"  "MOMENTUMX"  "MOMENTUMY"  "MOMENTUMZ"  "ENERGY"  "TURB1"  "TURB2"  "CL_TOT"  "CD_TOT"  "CM_TOT"

DATASETAUXDATA ParticipantID   = "005"
DATASETAUXDATA SubmissionDate  = "10-31-2024"
DATASETAUXDATA Name            = "Jeffrey A. Housman"
DATASETAUXDATA Email           = "jeffrey.a.housman@nasa.gov"
DATASETAUXDATA Institution     = "NASA Ames Research Center"
DATASETAUXDATA SolverName      = "LAVA Curvilinear"
DATASETAUXDATA BasicAlgorithm  = "RANS"
DATASETAUXDATA TurbulenceModel = "SA-RC-comp-neg"
DATASETAUXDATA GridId          = "Multiblock"
DATASETAUXDATA Discretization  = "Finite difference"
DATASETAUXDATA Order           = "2"
DATASETAUXDATA DistanceCalc    = "Exact"
DATASETAUXDATA Notes           = " "

ZONE T = "005.02 - Alpha 2.50 - Grid Level 6"
AUXDATA Tstatic         = "271.0"
AUXDATA Deltat          = "-999"
AUXDATA GridFileName    = "ONERA-OAT15A_230mmChord_780mmSpan_upZ_2024_06_25-Structured_23mm_Level-6.x"
AUXDATA Misc            = " "
 0 6 1281933 6.0700099571076001e+05 2.2126826632957952e+06 1.0839362113533385e-13 5.9853653768645367e+05 6.5129925571229088e+05 4.1556287122500069e+06 -999 1.48484432e-02 1.052336324e+00 -7.05684962e-03
 1 6 1281933 9.3392613579056936e+05 1.6149421207540792e+06 9.0808801059521172e-14 4.4590714529546344e+05 9.0902843117346382e+05 2.6930813130861241e+06 -999 4.04263846e-02 9.442685744e-01 -1.90457364e-02
 2 6 1281933 1.1544248932387023e+06 1.3541621499230457e+06 7.8060767238684841e-14 4.9173769451449421e+05 1.1076327576180410e+06 1.7524824799077203e+06 -999 7.22692466e-02 8.779040168e-01 -3.41213684e-02
 3 6 1281933 1.3416221483783876e+06 1.1960258436536011e+06 6.8480199785501820e-14 5.9275527877943905e+05 1.2870734387609861e+06 1.1467331415162822e+06 -999 1.02500030e-01 8.327659539e-01 -4.79208381e-02
 4 6 1281933 1.4945967089813442e+06 1.0892431358351647e+06 6.1108066710255661e-14 7.1439315197684709e+05 1.4502712463938482e+06 7.4495482273947692e+05 -999 1.29613843e-01 8.002994355e-01 -5.92168538e-02
 5 6 1281933 1.6589493441179125e+06 1.0878275990326491e+06 5.5349764182207580e-14 8.3959753104972269e+05 1.6550158436231483e+06 4.8006011551550799e+05 -999 1.49428160e-01 7.742694218e-01 -6.75622907e-02
 6 6 1281933 1.4992383611349873e+06 1.0932135969715570e+06 5.0923068417867594e-14 8.7110429421659093e+05 1.4989566275472983e+06 2.8686570135407086e+05 -999 1.63183107e-01 7.443704145e-01 -7.40383655e-02
 7 6 1281933 1.5264719645122972e+06 1.0889923456771246e+06 4.6798022421440863e-14 9.0452058726908010e+05 1.5264131786429081e+06 1.6107296719893810e+05 -999 1.75306116e-01 7.125350394e-01 -8.00438904e-02
 8 6 1281933 1.6109759993950424e+06 1.0429565379888295e+06 4.3754926575068713e-14 9.3258145797915454e+05 1.6285103071479928e+06 1.2550528745817590e+05 -999 1.84609323e-01 6.835473265e-01 -8.43734302e-02
 9 6 1281933 1.8443476994736954e+06 1.0914004873363548e+06 4.1472138692473272e-14 9.9017857353135117e+05 1.9315399350612897e+06 1.0744460901692195e+05 -999 1.92017472e-01 6.574281701e-01 -8.75745177e-02
 10 6 1281933 1.8660928404631573e+06 1.0211175458869146e+06 3.9825884250207035e-14 1.0085320890287701e+06 1.9402506068260274e+06 9.5631275581878203e+04 -999 1.97302939e-01 6.368122452e-01 -8.98379909e-02
 11 6 1281933 1.7345984157079533e+06 1.0385345347895885e+06 3.8316953995356349e-14 9.7848282887092093e+05 1.8057864425073876e+06 8.6940325686128563e+04 -999 2.01556905e-01 6.187373549e-01 -9.17264077e-02
 12 6 1281933 1.6020234767010924e+06 9.3122165429970657e+05 3.6635742840880361e-14 9.4958036530542385e+05 1.6254793387167151e+06 8.0446686702612889e+04 -999 2.06011866e-01 5.983825819e-01 -9.36474156e-02
 13 6 1281933 1.6412491526440743e+06 9.8105893181052245e+05 3.5331063189043918e-14 9.5810709422057192e+05 1.6797397501965705e+06 7.5149566328061192e+04 -999 2.09350096e-01 5.816952324e-01 -9.50972239e-02
 14 6 1281933 1.8989428060892711e+06 1.0772866020968647e+06 3.4206881363638031e-14 1.0223981756669724e+06 2.0067572102469041e+06 7.0839894300855754e+04 -999 2.12282065e-01 5.660809382e-01 -9.64423530e-02
 15 6 1281933 1.7597281727061961e+06 8.7432837970161659e+05 3.3505211757571758e-14 9.5729026059355075e+05 1.8304422727603130e+06 6.6626898998898338e+04 -999 2.13841295e-01 5.571076166e-01 -9.72049542e-02
 16 6 1281933 1.6278861704602016e+06 8.8628836959185719e+05 3.2587997127952422e-14 9.3614406988633866e+05 1.6757376525046376e+06 6.2532381775845555e+04 -999 2.15501879e-01 5.466300689e-01 -9.80128932e-02
 17 6 1281933 1.5101357161287921e+06 8.7185185813893029e+05 3.1667648855842472e-14 9.0031725999658450e+05 1.5327300243550923e+06 5.9324322380594560e+04 -999 2.16936595e-01 5.366034795e-01 -9.86614314e-02
 18 6 1281933 1.6613001145327613e+06 9.2822979288350313e+05 3.0787693533954501e-14 9.3143101535306778e+05 1.7197677017939833e+06 5.6773097981012113e+04 -999 2.18285908e-01 5.259345513e-01 -9.92129224e-02
 19 6 1281933 1.6239872771824761e+06 8.0988573011197580e+05 3.0203932753015090e-14 9.1393240344515129e+05 1.6649161473299910e+06 5.4355360243406707e+04 -999 2.19101159e-01 5.186322030e-01 -9.95020674e-02
 20 6 1281933 1.8011824701746695e+06 9.4395393616267666e+05 2.9696642040352483e-14 9.2856377669802681e+05 1.9096141975497976e+06 5.2139005114460495e+04 -999 2.19844612e-01 5.114694989e-01 -9.97508012e-02
 21 6 1281933 1.5228703631364843e+06 8.1459288537358202e+05 2.9098854993534075e-14 8.6709767427349475e+05 1.5877381793800900e+06 4.8765312852461211e+04 -999 2.20474345e-01 5.042078809e-01 -9.99535826e-02
 22 6 1281933 1.4175415637221050e+06 8.0506169720234664e+05 2.8539178680865961e-14 8.3723509135479759e+05 1.4414374084474875e+06 4.6248985657904290e+04 -999 2.21071764e-01 4.967628526e-01 -1.00147983e-01
 23 6 1281933 1.4740838175770924e+06 7.7164800869215874e+05 2.8078360521463385e-14 8.4073247118412389e+05 1.5037634684755295e+06 4.4299395012737397e+04 -999 2.21625226e-01 4.893230391e-01 -1.00335706e-01
 24 6 1281933 1.5242759874763824e+06 7.6479419183792023e+05 2.7731825950991526e-14 8.2799473340958124e+05 1.5846428122051372e+06 4.2470806694570609e+04 -999 2.22014366e-01 4.836573025e-01 -1.00473867e-01
 25 6 1281933 1.7358122982591805e+06 9.6409457031974918e+05 2.7451234036570763e-14 8.8130671469411138e+05 1.8607247655414529e+06 4.1006711872329004e+04 -999 2.22403463e-01 4.776798841e-01 -1.00616268e-01
 26 6 1281933 1.4671647906739786e+06 8.3695479099464708e+05 2.7002258180755286e-14 8.0328882549468963e+05 1.5610904694603796e+06 3.8265261710617713e+04 -999 2.22675823e-01 4.727284983e-01 -1.00715220e-01
 27 6 1281933 1.2986462461370074e+06 7.1995698432567751e+05 2.6558138727404990e-14 7.5745882382174383e+05 1.3327280631652249e+06 3.6303789680064845e+04 -999 2.22983266e-01 4.670348308e-01 -1.00826997e-01
 28 6 1281933 1.3058954206655738e+06 7.0349592188147479e+05 2.6204542574098706e-14 7.4474829977219389e+05 1.3306847960502217e+06 3.4766039663761891e+04 -999 2.23278221e-01 4.614546028e-01 -1.00932328e-01
 29 6 1281933 1.4082973353540946e+06 7.2726054164616275e+05 2.5993083797749643e-14 7.4429538742650847e+05 1.4783307815796225e+06 3.3396184251731698e+04 -999 2.23518670e-01 4.568507573e-01 -1.01016346e-01
 30 6 1281933 1.5749157283474954e+06 8.6663544931874180e+05 2.5828265590084210e-14 7.8123291844547528e+05 1.6889491558764689e+06 3.2236005939358936e+04 -999 2.23749605e-01 4.524157940e-01 -1.01096071e-01
 31 6 1281933 1.3238298099381740e+06 7.5585857062705583e+05 2.5439946070511670e-14 7.1199343536975561e+05 1.4153285163629896e+06 3.0102143276189352e+04 -999 2.23934809e-01 4.483452773e-01 -1.01158045e-01
 32 6 1281933 1.1516822835555892e+06 6.4421359688921948e+05 2.5036259709740502e-14 6.6463716993798560e+05 1.1894610093958746e+06 2.8614869707887457e+04 -999 2.24138479e-01 4.438555020e-01 -1.01227150e-01
 33 6 1281933 1.1733249014447567e+06 6.3634634039066150e+05 2.4686596500797788e-14 6.5207076061242970e+05 1.2019841215811362e+06 2.7446909836539537e+04 -999 2.24359754e-01 4.389560311e-01 -1.01303860e-01
 34 6 1281933 1.2465813382685990e+06 6.2453071953810146e+05 2.4487607964743989e-14 6.5265674730077793e+05 1.3013149652260742e+06 2.6377177561110781e+04 -999 2.24530497e-01 4.351520894e-01 -1.01364658e-01
 35 6 1281933 1.3785713249980677e+06 7.4294475512415136e+05 2.4394738118158278e-14 6.6510154689875396e+05 1.4864100088826113e+06 2.5387825628135652e+04 -999 2.24679831e-01 4.318039561e-01 -1.01418969e-01
 36 6 1281933 1.1664411998756402e+06 6.3191617346259090e+05 2.4136215915148677e-14 6.1501243539141619e+05 1.2502221864667665e+06 2.3722449682473867e+04 -999 2.24809207e-01 4.285132398e-01 -1.01465845e-01
 37 6 1281933 1.0008455765824779e+06 5.6977635671460512e+05 2.3860925316779065e-14 5.7057601572197932e+05 1.0367494829645657e+06 2.2549107402662157e+04 -999 2.24966624e-01 4.245566918e-01 -1.01523956e-01
 38 6 1281933 9.9144193645509332e+05 5.4935611167571170e+05 2.3691601496565041e-14 5.5048022691664763e+05 1.0119056955517820e+06 2.1610419390669369e+04 -999 2.25124685e-01 4.206362416e-01 -1.01583433e-01
 39 6 1281933 1.1023593997181547e+06 5.8323609009534295e+05 2.3662135162066766e-14 5.5455054848221072e+05 1.1574806605125540e+06 2.0773431457035505e+04 -999 2.25263947e-01 4.172277239e-01 -1.01636604e-01
 40 6 1281933 1.2271928446809442e+06 6.5848792175016750e+05 2.3729212710377579e-14 5.7490795484995097e+05 1.3160947993807234e+06 2.0013723799140731e+04 -999 2.25389323e-01 4.141927504e-01 -1.01684898e-01
 41 6 1281933 1.0360909888357916e+06 5.7951370214424317e+05 2.3470510398098851e-14 5.2629264667782583e+05 1.1166869788451192e+06 1.8694689420246428e+04 -999 2.25492143e-01 4.114405951e-01 -1.01723771e-01
 42 6 1281933 8.6484706028711190e+05 4.8969662880525092e+05 2.3155258604254937e-14 4.8232473622991057e+05 9.0256486474876385e+05 1.7764712068402896e+04 -999 2.25619744e-01 4.081061339e-01 -1.01772303e-01
 43 6 1281933 8.3761279921882029e+05 4.6596901644834602e+05 2.2889554066585855e-14 4.6021040122131695e+05 8.5099664087589469e+05 1.7018557531557413e+04 -999 2.25755071e-01 4.046622448e-01 -1.01824078e-01
 44 6 1281933 9.2197553990238137e+05 4.8774197682028916e+05 2.2765338165113750e-14 4.5988691023901687e+05 9.6107646269714716e+05 1.6354868891895394e+04 -999 2.25874328e-01 4.016991343e-01 -1.01869919e-01
 45 6 1281933 1.0390265272359375e+06 5.7135845617814083e+05 2.2741260437857157e-14 4.7255286756256927e+05 1.1171352760033701e+06 1.5739760913645934e+04 -999 2.25979758e-01 3.991256651e-01 -1.01910566e-01
 46 6 1281933 8.7585073971537338e+05 4.8020001318422920e+05 2.2517160928853324e-14 4.3374077815905906e+05 9.4576097400261660e+05 1.4695279047292481e+04 -999 2.26071333e-01 3.966908075e-01 -1.01945123e-01
 47 6 1281933 7.2707945000765054e+05 4.1300002636310260e+05 2.2251647587511256e-14 3.9744216103154607e+05 7.6385397068026313e+05 1.3924996934164728e+04 -999 2.26180766e-01 3.938533383e-01 -1.01986676e-01
 48 6 1281933 6.8290158063205401e+05 3.8154014737470564e+05 2.2021264373257451e-14 3.7415760817317944e+05 6.9119868370155513e+05 1.3289023343961959e+04 -999 2.26301607e-01 3.908004033e-01 -1.02032856e-01
 49 6 1281933 7.4496481042272015e+05 3.9270813873032079e+05 2.1914413703144689e-14 3.7004476104676531e+05 7.6736270562276687e+05 1.2729212065202808e+04 -999 2.26414007e-01 3.880291059e-01 -1.02076053e-01
 50 6 1281933 8.3136167971600767e+05 4.3504121497633483e+05 2.1919167787878484e-14 3.7637957913724950e+05 8.8087772707155941e+05 1.2214566095555227e+04 -999 2.26513105e-01 3.856321215e-01 -1.02114295e-01
 51 6 1281933 7.0946877619716001e+05 3.7876362627747864e+05 2.1732300929527043e-14 3.4653058657137852e+05 7.6075408898706292e+05 1.1384669296251537e+04 -999 2.26599194e-01 3.833868370e-01 -1.02146965e-01
 52 6 1281933 5.8718156447427359e+05 3.3151052139288024e+05 2.1510115017540820e-14 3.1636933634125855e+05 6.1850193274680222e+05 1.0739921398998467e+04 -999 2.26701997e-01 3.807697795e-01 -1.02186263e-01
 53 6 1281933 5.4238842242203676e+05 3.0400556675048504e+05 2.1317444951290809e-14 2.9472811119635275e+05 5.4978335046716279e+05 1.0189989501808941e+04 -999 2.26817691e-01 3.779000996e-01 -1.02230789e-01
 54 6 1281933 5.8252989792544756e+05 3.0900843582892482e+05 2.1240246256003040e-14 2.8801605750190257e+05 5.9605564194241131e+05 9.7021373559919903e+03 -999 2.26927172e-01 3.752547798e-01 -1.02273150e-01
 55 6 1281933 6.4003579633907357e+05 3.3454307796257542e+05 2.1269892661149744e-14 2.8913165385077154e+05 6.7316349691850331e+05 9.2605284847953062e+03 -999 2.27024127e-01 3.729636958e-01 -1.02310804e-01
 56 6 1281933 5.5042944345830963e+05 2.9321007664335961e+05 2.1078192726039968e-14 2.6714027784952498e+05 5.8695301757254649e+05 8.6255441598419202e+03 -999 2.27108388e-01 3.708448686e-01 -1.02343287e-01
 57 6 1281933 4.5584555125239672e+05 2.5799368981036139e+05 2.0843593965615745e-14 2.4382859170133548e+05 4.8119432772493223e+05 8.0990997696154873e+03 -999 2.27210211e-01 3.683475414e-01 -1.02382909e-01
 58 6 1281933 4.1364718150439020e+05 2.3463273008329960e+05 2.0627876489982855e-14 2.2374750337900981e+05 4.2158632492669142e+05 7.6322197519416286e+03 -999 2.27329991e-01 3.655420974e-01 -1.02429305e-01
 59 6 1281933 4.3483362524053018e+05 2.3316089889594106e+05 2.0534982306582676e-14 2.1473490918116295e+05 4.4375109885476885e+05 7.2230384216115881e+03 -999 2.27446505e-01 3.628803337e-01 -1.02474889e-01
 60 6 1281933 4.6905583799240331e+05 2.4903259572959514e+05 2.0562190145723918e-14 2.1197026429475818e+05 4.9037814671114640e+05 6.8353422763638919e+03 -999 2.27549397e-01 3.605799746e-01 -1.02515547e-01
 61 6 1281933 4.0449034718995396e+05 2.1901826915718603e+05 2.0368058589839259e-14 1.9547870005683706e+05 4.2914446497343492e+05 6.3418211311760451e+03 -999 2.27637818e-01 3.585034851e-01 -1.02550823e-01
 62 6 1281933 3.3466869369782088e+05 1.9320243291188031e+05 2.0131606289334029e-14 1.7736845159869592e+05 3.5397098003697896e+05 5.9158587938835753e+03 -999 2.27744105e-01 3.560471265e-01 -1.02593743e-01
 63 6 1281933 2.9849659880860144e+05 1.7521396165028366e+05 1.9899186336453471e-14 1.6160919886553014e+05 3.0668118601485237e+05 5.5300684358868730e+03 -999 2.27867221e-01 3.532537128e-01 -1.02643998e-01
 64 6 1281933 3.0458440762242704e+05 1.7065356214151270e+05 1.9772237905274531e-14 1.5286883317124395e+05 3.1115623902909522e+05 5.1939299492486716e+03 -999 2.27986842e-01 3.505920474e-01 -1.02693339e-01
 65 6 1281933 3.1924569051891012e+05 1.7379788865699433e+05 1.9760566319488637e-14 1.4821828816137751e+05 3.3100123960657662e+05 4.9003831898165545e+03 -999 2.28095008e-01 3.482233617e-01 -1.02738500e-01
 66 6 1281933 2.7723271799310815e+05 1.5726960987753214e+05 1.9592193705904947e-14 1.3720593677954850e+05 2.9204935115959094e+05 4.4961600774179342e+03 -999 2.28182647e-01 3.461772288e-01 -1.02775705e-01
 67 6 1281933 2.2933489760494861e+05 1.4137214120436914e+05 1.9365058602803233e-14 1.2451333443175543e+05 2.4226522996969556e+05 4.1613759488283167e+03 -999 2.28288971e-01 3.437158953e-01 -1.02821187e-01
 68 6 1281933 1.9990682650398233e+05 1.2870054477673261e+05 1.9127521436019295e-14 1.1246593717700694e+05 2.0665257355186660e+05 3.8501722618072613e+03 -999 2.28413625e-01 3.408635734e-01 -1.02874783e-01
 69 6 1281933 1.9679795293574090e+05 1.2298157450661063e+05 1.8987367809760923e-14 1.0454879691587477e+05 2.0165440348853628e+05 3.5962796142404072e+03 -999 2.28535727e-01 3.381078640e-01 -1.02927604e-01
 70 6 1281933 1.9899939285264784e+05 1.2059970287792324e+05 1.8971496326091621e-14 9.9269748386033345e+04 2.0531840736425854e+05 3.3631678563017817e+03 -999 2.28646715e-01 3.356318084e-01 -1.02976275e-01
 71 6 1281933 1.7346168261626977e+05 1.1142504425982368e+05 1.8791996123901193e-14 9.2197392033023963e+04 1.8165176965361918e+05 3.0702925970396832e+03 -999 2.28732835e-01 3.335379508e-01 -1.03014440e-01
 72 6 1281933 1.4349842950926724e+05 1.0209482437272035e+05 1.8570477052798075e-14 8.3840422098103663e+04 1.5101378318585615e+05 2.8170125775967258e+03 -999 2.28837491e-01 3.310050066e-01 -1.03061033e-01
 73 6 1281933 1.2216387855936910e+05 9.3827260420964260e+04 1.8318034315678397e-14 7.5272485575108512e+04 1.2655519318766925e+05 2.5966859487823090e+03 -999 2.28961922e-01 3.280208519e-01 -1.03116527e-01
 74 6 1281933 1.1516807831521519e+05 8.8587780991920168e+04 1.8143213185037301e-14 6.8780912758207749e+04 1.1819252716268579e+05 2.4105869415971783e+03 -999 2.29084912e-01 3.251082938e-01 -1.03171736e-01
 75 6 1281933 1.1151682493629502e+05 8.4814267881852924e+04 1.8081389913850532e-14 6.3872013031265036e+04 1.1455795540698220e+05 2.2521997849974418e+03 -999 2.29196990e-01 3.224816095e-01 -1.03223174e-01
 76 6 1281933 9.7476023136216521e+04 7.9572288648950489e+04 1.7916914247619164e-14 5.8407102327214023e+04 1.0134443189787728e+05 2.0475910129970171e+03 -999 2.29279392e-01 3.202657693e-01 -1.03260456e-01
 77 6 1281933 8.0640316218152293e+04 7.3895777986143876e+04 1.7695811961787918e-14 5.2018997039747475e+04 8.4208998681115088e+04 1.8675781232464815e+03 -999 2.29379916e-01 3.175515168e-01 -1.03305920e-01
 78 6 1281933 6.6917594775750607e+04 6.8270127289480137e+04 1.7430442336991159e-14 4.5223098078479852e+04 6.9059537587496423e+04 1.7403743575155804e+03 -999 2.29500925e-01 3.142833883e-01 -1.03360415e-01
 79 6 1281933 5.9872165616861013e+04 6.3932039356058252e+04 1.7200241252537546e-14 3.9759123336348763e+04 6.1218479829355412e+04 1.6393402101042479e+03 -999 2.29620384e-01 3.110568584e-01 -1.03414519e-01
 80 6 1281933 5.5005353209908950e+04 6.0460340186091533e+04 1.7076394699246392e-14 3.5569346282032253e+04 5.6039899801995889e+04 1.5670124075608476e+03 -999 2.29729219e-01 3.080952178e-01 -1.03465465e-01
 81 6 1281933 4.7800300736681675e+04 5.7033526941293574e+04 1.6908144887414876e-14 3.2280007997763754e+04 4.9087651667987426e+04 1.4858903617785868e+03 -999 2.29795365e-01 3.054374022e-01 -1.03491441e-01
 82 6 1281933 3.9283411827139484e+04 5.3209716713609188e+04 1.6682557916510188e-14 2.8498437780409709e+04 4.0437131517482521e+04 1.4947826761782474e+03 -999 2.29873028e-01 3.021030288e-01 -1.03519547e-01
 83 6 1281933 3.1892245812278739e+04 4.9256413107202716e+04 1.6379828786392412e-14 2.4569966343489134e+04 3.2594938841684831e+04 1.6755887207758003e+03 -999 2.29962424e-01 2.979751779e-01 -1.03547714e-01
 84 6 1281933 2.7562712243888269e+04 4.6080587393085843e+04 1.6102728395877012e-14 2.1568984203567168e+04 2.8078369820055254e+04 2.0326029064417719e+03 -999 2.30045118e-01 2.938081220e-01 -1.03569332e-01
 85 6 1281933 2.4833722339870139e+04 4.3620743222742880e+04 1.5887748784872166e-14 1.9502964267554278e+04 2.5354722302212165e+04 2.4940718575455949e+03 -999 2.30116403e-01 2.898514796e-01 -1.03585415e-01
 86 6 1281933 2.1703913154431495e+04 4.1085577906602914e+04 1.5663722038698539e-14 1.7740496925679599e+04 2.2499511018381789e+04 3.0141445943354543e+03 -999 2.30154160e-01 2.855718208e-01 -1.03550228e-01
 87 6 1281933 1.8577941720312127e+04 3.8256243062137619e+04 1.5397282678437714e-14 1.5953438172799588e+04 1.9695142179074614e+04 3.8268438322579468e+03 -999 2.30229822e-01 2.799290248e-01 -1.03502529e-01
 88 6 1281933 1.6665942084816783e+04 3.5545543720895104e+04 1.5040840824880084e-14 1.4509863884943019e+04 1.8212928217828914e+04 7.7160220710778167e+03 -999 2.30391294e-01 2.728091096e-01 -1.03452769e-01
 89 6 1281933 1.6219336325667056e+04 3.3704528648903892e+04 1.4713685013889029e-14 1.3764627042055616e+04 1.8210422662840647e+04 1.3689236837651797e+04 -999 2.30643640e-01 2.654782600e-01 -1.03422968e-01
 90 6 1281933 1.6405308273704541e+04 3.2649156747615871e+04 1.4501715109476944e-14 1.3496649810576933e+04 1.8748831936695322e+04 2.2912679231103717e+04 -999 2.31006445e-01 2.581480491e-01 -1.03450631e-01
 91 6 1281933 1.5728464521343541e+04 3.0134649289419485e+04 2.9392434621258374e-14 1.2732279274531009e+04 1.8254723166409211e+04 7.2131626118656306e+04 -999 2.31763431e-01 2.477435733e-01 -1.03700953e-01
 92 6 1281933 1.6040070513792316e+04 2.8669826789375176e+04 7.5350534507135964e-14 1.2327703133956582e+04 1.8703224600431513e+04 1.7376767488746741e+05 -999 2.33067082e-01 2.325184819e-01 -1.04359659e-01
 93 6 1281933 1.6961504921337131e+04 3.4035835459663947e+04 1.5457783640568743e-13 1.2177305742161716e+04 2.0540509308641042e+04 2.8222396305450454e+05 -999 2.34863204e-01 2.134899343e-01 -1.05771098e-01
 94 6 1281933 1.7044757575500567e+04 3.8288409804166891e+04 1.8941649290312630e-13 1.2166920311898302e+04 2.4111730972084435e+04 1.2605065207610281e+05 -999 2.35394791e-01 2.069077281e-01 -1.06491136e-01
 95 6 1281933 1.7042433769145540e+04 3.5546035675790416e+04 2.1103335189399263e-13 1.2297930885489524e+04 2.5036660991845598e+04 3.3839987775962782e+05 -999 2.35639249e-01 2.030160057e-01 -1.06945015e-01
 96 6 1281933 1.6612607352444295e+04 2.2190422280350725e+04 4.6197011737279817e-13 1.1424816043179750e+04 1.8432726721329258e+04 3.4703294071615703e+05 -999 2.37466613e-01 1.795688674e-01 -1.09760007e-01
 97 6 1281933 1.6034953656890004e+04 2.0612848935165777e+04 5.4481627735137677e-13 1.0928050237168929e+04 1.7335790927118414e+04 2.2194323065393188e+05 -999 2.38137423e-01 1.584211544e-01 -1.12966090e-01
 98 6 1281933 1.5555536970665362e+04 3.6063045413353320e+04 4.8841443789316734e-13 1.1076610978105882e+04 1.8810326073760622e+04 3.3524821160973510e+05 -999 2.36897174e-01 1.400573053e-01 -1.15875456e-01
 99 6 1281933 1.5346901660277132e+04 3.6424079777976498e+04 4.7706063438995070e-13 1.0526638901848228e+04 1.7966127352450774e+04 2.4647931570927496e+05 -999 2.36497973e-01 1.384025651e-01 -1.16077956e-01
 100 6 1281933 1.5220232188683720e+04 3.5094397143934002e+04 4.7004539347691142e-13 1.0271699295328530e+04 1.7566734249505498e+04 2.1545855994545555e+05 -999 2.36177889e-01 1.372360601e-01 -1.16213482e-01
 101 6 1281933 1.3702657850344494e+04 2.2396031137034242e+04 3.3350630892267015e-12 8.6660810369754472e+03 1.4085258108962546e+04 1.5887260250293478e+05 -999 2.31245447e-01 1.215959524e-01 -1.17614477e-01
 102 6 1281933 1.2590162110783443e+04 2.0891688079908858e+04 5.0195689487471105e-12 7.5164616166693613e+03 1.2810545967569960e+04 8.6065196717387138e+04 -999 2.26797334e-01 1.130222626e-01 -1.17637858e-01
 103 6 1281933 1.2088815514831749e+04 1.9296794551816707e+04 6.4790722154420305e-12 6.8289784779350111e+03 1.2179169033148419e+04 4.8355351919249581e+04 -999 2.24319599e-01 1.082689213e-01 -1.17437221e-01
 104 6 1281933 1.1706152089475092e+04 1.8297860904996909e+04 7.3078658008971687e-12 6.5001760883701718e+03 1.1750170413781889e+04 2.4106989019862209e+04 -999 2.23217824e-01 1.057758755e-01 -1.17313603e-01
 105 6 1281933 1.2345884659838515e+04 2.0284267844613882e+04 7.3994320169110049e-12 6.2109019790189877e+03 1.2360077573497500e+04 1.6315696157567121e+04 -999 2.22343633e-01 1.030386245e-01 -1.17224722e-01
 106 6 1281933 1.0146355335820790e+04 1.5693419777937406e+04 1.4344081301932520e-11 5.5515074189213110e+03 1.0044898281795575e+04 1.2459665925677398e+04 -999 2.24392055e-01 9.793325867e-02 -1.18036525e-01
 107 6 1281933 8.9610604868841874e+03 1.2302764175408964e+04 2.1785205710165531e-11 5.4723463510116235e+03 8.6393359889767926e+03 2.2665098520976841e+04 -999 2.32530131e-01 9.067192559e-02 -1.20933354e-01
 108 6 1281933 9.2586919300408044e+03 1.3400125278547601e+04 1.6029627971375370e-11 5.7555778596594018e+03 8.8690548157468529e+03 4.3630014165459819e+04 -999 2.48776932e-01 8.514546004e-02 -1.26771202e-01
 109 6 1281933 9.1091429798778463e+03 1.3495007369080957e+04 1.3576316872692428e-11 5.4913277453332694e+03 8.8812297038091383e+03 3.6369592893325673e+04 -999 2.59121024e-01 8.330231578e-02 -1.30651857e-01
 110 6 1281933 8.8102643957422333e+03 1.3490943692276045e+04 1.4139102013778575e-11 5.0831434306079636e+03 8.9717430539543402e+03 5.1914058765441492e+04 -999 2.73766920e-01 8.115478327e-02 -1.36233384e-01
 111 6 1281933 5.9407167227412210e+03 8.2653470099736151e+03 3.1914499262945636e-11 3.9628786442969376e+03 5.6994160721169928e+03 5.9104158961701287e+04 -999 3.04002987e-01 7.797464338e-02 -1.47746556e-01
 112 6 1281933 5.1132530684849917e+03 5.9101419155018175e+03 6.0942316643256516e-11 3.2361013959035868e+03 5.0535234116481779e+03 1.0844958468297361e+05 -999 3.48926493e-01 7.356548936e-02 -1.64285820e-01
 113 6 1281933 4.6454370689775296e+03 5.3515923498289030e+03 5.9986959428537202e-11 2.6006074261623271e+03 4.4419529078752912e+03 1.2412503684613218e+05 -999 3.93589694e-01 6.896420193e-02 -1.79050002e-01
 114 6 1281933 4.2689869573076357e+03 4.9798751563342585e+03 1.4775950257011335e-10 2.1462738012994682e+03 4.0882711501247572e+03 9.1372717989691591e+04 -999 4.27940872e-01 6.523996698e-02 -1.88390393e-01
 115 6 1281933 4.3998970309801971e+03 5.8466503927057220e+03 9.9151755616204677e-10 1.6287302971518586e+03 4.4537289800460812e+03 6.4526500198739115e+04 -999 4.70283005e-01 6.084711056e-02 -1.97592623e-01
 116 6 1281933 3.4502395153433940e+03 4.1763407554870500e+03 5.2743018719752803e-10 1.1313448308910331e+03 3.3486877563053845e+03 3.3397313239379379e+04 -999 5.21071810e-01 5.798821479e-02 -2.02613388e-01
 117 6 1281933 3.0723787396959260e+03 3.5468655582776369e+03 3.5862875024988418e-10 8.8131996252283943e+02 2.9379929340065041e+03 2.0026424809745273e+04 -999 5.63462260e-01 5.637721139e-02 -2.05083574e-01
 118 6 1281933 2.9040190055395660e+03 3.2517620492661463e+03 2.6846307839180563e-10 7.8012172709913239e+02 2.7550186236804579e+03 9.8989360215268207e+03 -999 5.87752333e-01 5.566656676e-02 -2.05485150e-01
 119 6 1281933 2.8248836964074958e+03 3.1274374680647688e+03 2.2258155334025403e-10 7.3623522751468897e+02 2.6692765364447869e+03 7.0623690245268299e+03 -999 6.01799026e-01 5.532855891e-02 -2.05387421e-01
 120 6 1281933 2.7774154888992739e+03 3.0255310025611807e+03 1.8527558066313463e-10 6.9815411910658486e+02 2.6136061617467553e+03 5.8841981448039742e+03 -999 6.13814053e-01 5.507529081e-02 -2.05141403e-01
 121 6 1281933 2.5611231346050681e+03 2.9033677137320801e+03 1.4560081071262425e-10 6.7200196656365131e+02 2.3911952311002001e+03 5.5705202673901713e+03 -999 6.35108357e-01 5.518014892e-02 -2.05036813e-01
 122 6 1281933 2.4329770293982442e+03 2.8777845346685649e+03 1.1318872133858775e-10 7.4851255564178143e+02 2.2616422921979461e+03 5.3462292777603070e+03 -999 6.56187326e-01 5.517914547e-02 -2.04581776e-01
 123 6 1281933 2.3638028693625456e+03 2.9035110751174070e+03 8.5061386265439467e-11 8.6425645364830882e+02 2.1908342219483307e+03 5.6419341052942800e+03 -999 6.78879416e-01 5.520573169e-02 -2.03759644e-01
 124 6 1281933 2.3558170092406131e+03 2.9447005787094017e+03 7.0590998405538911e-11 9.3133901257036632e+02 2.1793790102662770e+03 5.3108985351318925e+03 -999 6.93535565e-01 5.519649404e-02 -2.02915820e-01
 125 6 1281933 2.3503988369523267e+03 2.9814494344910759e+03 6.1989851666648555e-11 9.7072381800457390e+02 2.1731855791867174e+03 5.0949913423499438e+03 -999 7.03889998e-01 5.517537919e-02 -2.02173173e-01
 126 6 1281933 2.2354269743643486e+03 3.1903811221198212e+03 5.0478727000693867e-11 1.0527019754676639e+03 2.0740160368800507e+03 5.8269849138717273e+03 -999 7.20035193e-01 5.530936439e-02 -2.01720009e-01
 127 6 1281933 2.1631108949722607e+03 3.3799208044631855e+03 4.2153927872656162e-11 1.2169396324059287e+03 2.0113858988374300e+03 5.9227033722406113e+03 -999 7.34375303e-01 5.543155345e-02 -2.00984900e-01
 128 6 1281933 2.1186851633865672e+03 3.5216344365001182e+03 3.5668862655783426e-11 1.3533556271722296e+03 1.9723682448970740e+03 6.2873577823378482e+03 -999 7.47864474e-01 5.549955677e-02 -2.00165770e-01
 129 6 1281933 2.1211591885270477e+03 3.6248762437428222e+03 3.0636708680257306e-11 1.4376023147417668e+03 1.9695154976828233e+03 6.5605846866507864e+03 -999 7.60529521e-01 5.550230400e-02 -1.99246044e-01
 130 6 1281933 2.1656313147324176e+03 3.7249436319795795e+03 2.7134585841427708e-11 1.4813430968369657e+03 2.0022934840068081e+03 6.4069362568681481e+03 -999 7.70486101e-01 5.544897148e-02 -1.98436955e-01
 131 6 1281933 2.0891737787530483e+03 3.5395166048613555e+03 2.3482110390622550e-11 1.3794891375087689e+03 1.9285277090750640e+03 5.4512862185091717e+03 -999 7.75509117e-01 5.542872401e-02 -1.97899375e-01
 132 6 1281933 2.0207325525068350e+03 3.3049252622339163e+03 1.9463980730769433e-11 1.2662610158603409e+03 1.8618336823657623e+03 6.0020623582688377e+03 -999 7.81754173e-01 5.539907576e-02 -1.97195973e-01
 133 6 1281933 1.9698332691362345e+03 3.0262463548388905e+03 1.5329566419505735e-11 1.1459240692508019e+03 1.8094244652907087e+03 6.4433642869294636e+03 -999 7.89344355e-01 5.535493549e-02 -1.96297203e-01
 134 6 1281933 1.9635011043941161e+03 2.8047479299708293e+03 1.2176608116339540e-11 1.0512748760056336e+03 1.7946239914495575e+03 6.4759818468438471e+03 -999 7.96578936e-01 5.530173227e-02 -1.95403395e-01
 135 6 1281933 1.9832544314770050e+03 2.7162275579195657e+03 1.0516666192385857e-11 1.0028375823913941e+03 1.8074981531014357e+03 5.8218994931891748e+03 -999 8.01363221e-01 5.525299971e-02 -1.94789728e-01
 136 6 1281933 1.9509204645403067e+03 2.6859481298733363e+03 9.4440944040831995e-12 9.8593656233765785e+02 1.7762437756265572e+03 5.5345236586420033e+03 -999 8.04647684e-01 5.519380639e-02 -1.94328676e-01
 137 6 1281933 1.9253916546034570e+03 2.6444433815270490e+03 8.2768140793643403e-12 9.7614304942046397e+02 1.7532927003030320e+03 5.8573981809703555e+03 -999 8.08640892e-01 5.511943886e-02 -1.93728341e-01
 138 6 1281933 1.8967769801769712e+03 2.5897887241958870e+03 7.0690251995319166e-12 9.7624225006430493e+02 1.7301481198482716e+03 6.2515133009282863e+03 -999 8.13348563e-01 5.503097881e-02 -1.93018176e-01
 139 6 1281933 1.8956960298681865e+03 2.4972037636151272e+03 5.6446054784194470e-12 9.8351003733227742e+02 1.7251261313843088e+03 7.1645408556147595e+03 -999 8.19861482e-01 5.489176042e-02 -1.91990424e-01
 140 6 1281933 1.9109828852881756e+03 2.4611055932390209e+03 5.0961061059570639e-12 9.9032655159666922e+02 1.7362347000698041e+03 6.1248041000907951e+03 -999 8.23159262e-01 5.480396284e-02 -1.91441339e-01