TITLE = "005.02 ALPHA 1.50 GRIDLEVEL 5"

VARIABLES = "ITERATION"  "GRID_LEVEL"  "GRID_SIZE"  "CONTINUITY"  "MOMENTUMX"  "MOMENTUMY"  "MOMENTUMZ"  "ENERGY"  "TURB1"  "TURB2"  "CL_TOT"  "CD_TOT"  "CM_TOT"

DATASETAUXDATA ParticipantID   = "005"
DATASETAUXDATA SubmissionDate  = "10-31-2024"
DATASETAUXDATA Name            = "Jeffrey A. Housman"
DATASETAUXDATA Email           = "jeffrey.a.housman@nasa.gov"
DATASETAUXDATA Institution     = "NASA Ames Research Center"
DATASETAUXDATA SolverName      = "LAVA Curvilinear"
DATASETAUXDATA BasicAlgorithm  = "RANS"
DATASETAUXDATA TurbulenceModel = "SA-RC-comp-neg"
DATASETAUXDATA GridId          = "Multiblock"
DATASETAUXDATA Discretization  = "Finite difference"
DATASETAUXDATA Order           = "2"
DATASETAUXDATA DistanceCalc    = "Exact"
DATASETAUXDATA Notes           = " "

ZONE T = "005.02 - Alpha 1.50 - Grid Level 5"
AUXDATA Tstatic         = "271.0"
AUXDATA Deltat          = "-999"
AUXDATA GridFileName    = "ONERA-OAT15A_230mmChord_780mmSpan_upZ_2024_06_25-Structured_23mm_Level-5.x"
AUXDATA Misc            = " "
 0 5 752103 4.6824141435393383e+05 1.5508738420232865e+06 7.6802109493453982e-14 4.2979900057265762e+05 4.8627125295426429e+05 2.8655197469067811e+06 -999 7.97684052e-03 9.091212764e-01 -1.33648352e-03
 1 5 752103 7.0979784141576523e+05 1.1548420418222256e+06 6.5388262914416206e-14 3.3365256277570978e+05 6.8590290319825534e+05 1.8567985569688792e+06 -999 2.51505161e-02 8.295578577e-01 -1.17548610e-02
 2 5 752103 8.8169656840303168e+05 9.7950830025199777e+05 5.7002091802476940e-14 3.7264916032709437e+05 8.4231997948265553e+05 1.2078210416246972e+06 -999 4.46110192e-02 7.816935811e-01 -2.41331826e-02
 3 5 752103 1.0328061747153641e+06 8.7696336543717678e+05 5.0624455349777652e-14 4.5423936241595261e+05 9.8837292287727050e+05 7.8988494763460511e+05 -999 6.22078102e-02 7.502619630e-01 -3.45749261e-02
 4 5 752103 1.1630519083145473e+06 8.0357561411231593e+05 4.5666903314900871e-14 5.4989055175588885e+05 1.1256661669129913e+06 5.0916930804593081e+05 -999 7.90847356e-02 7.286139689e-01 -4.38419171e-02
 5 5 752103 1.2980939466742678e+06 8.0714748775281187e+05 4.1784876641923261e-14 6.5015466338714072e+05 1.2873306963449353e+06 3.2732459231069573e+05 -999 9.09076135e-02 7.115451568e-01 -5.06694132e-02
 6 5 752103 1.1834229031350140e+06 8.3810243110463989e+05 3.8854397837635188e-14 6.8579967157007486e+05 1.1754059869556590e+06 1.7345188568792868e+05 -999 9.88046988e-02 6.899339942e-01 -5.60277157e-02
 7 5 752103 1.2163155683190012e+06 8.4838991053840076e+05 3.6246391423691982e-14 7.1766617257596971e+05 1.2051836569928511e+06 1.2145367533052470e+05 -999 1.05779457e-01 6.666481718e-01 -6.08632329e-02
 8 5 752103 1.2813567501792600e+06 8.3133699170594756e+05 3.4327815300540726e-14 7.3841759765615198e+05 1.2907839716524456e+06 9.9893798007125777e+04 -999 1.11663427e-01 6.436927900e-01 -6.44061605e-02
 9 5 752103 1.5565967383789076e+06 9.1078272278250055e+05 3.2730971516976982e-14 8.1883978911125090e+05 1.6285664190972634e+06 8.8225927288452876e+04 -999 1.17783446e-01 6.180893608e-01 -6.75727771e-02
 10 5 752103 1.4522944002302329e+06 7.5578243078444677e+05 3.1821862708742251e-14 7.8708967431684351e+05 1.4979724298350408e+06 7.9177745770675887e+04 -999 1.21063366e-01 6.028547124e-01 -6.92151873e-02
 11 5 752103 1.3751920995389395e+06 7.8010717287847842e+05 3.0768467493368147e-14 7.7972479935809318e+05 1.4076682252141361e+06 7.1421277753986884e+04 -999 1.24292857e-01 5.859841915e-01 -7.09451019e-02
 12 5 752103 1.2750032245340657e+06 7.6139640531316551e+05 2.9746135744871088e-14 7.5146465328262059e+05 1.2918063448664048e+06 6.5646210281739288e+04 -999 1.26896726e-01 5.702013384e-01 -7.23944902e-02
 13 5 752103 1.4294949050372241e+06 8.1050842437766225e+05 2.8794708825030753e-14 7.9052443286359683e+05 1.4795258903928772e+06 6.1260897834968338e+04 -999 1.29262433e-01 5.536373840e-01 -7.38153001e-02
 14 5 752103 1.3423531856190299e+06 6.9173185519651079e+05 2.8223215588430592e-14 7.5316142523332767e+05 1.3711625015359845e+06 5.7379920610352550e+04 -999 1.30577843e-01 5.433946891e-01 -7.46734607e-02
 15 5 752103 1.5492865408398625e+06 8.3932267423766374e+05 2.7782866772257107e-14 7.9209051929855894e+05 1.6465305278674359e+06 5.4105530612886439e+04 -999 1.31870059e-01 5.329769623e-01 -7.55682994e-02
 16 5 752103 1.2969169797794502e+06 7.2955476621405873e+05 2.7241516397740009e-14 7.2157975925734430e+05 1.3630644055821598e+06 4.9722847274582469e+04 -999 1.32886042e-01 5.239962859e-01 -7.62668106e-02
 17 5 752103 1.1979944442172237e+06 6.7945281933119299e+05 2.6675575222556750e-14 6.9713238831571047e+05 1.2177535522469897e+06 4.6272019210217841e+04 -999 1.33942876e-01 5.139090134e-01 -7.69568441e-02
 18 5 752103 1.1726049542293441e+06 6.3895335301699373e+05 2.6271920086914154e-14 6.7910754830604931e+05 1.1839190210752443e+06 4.3510081319107230e+04 -999 1.34767878e-01 5.051296495e-01 -7.74476657e-02
 19 5 752103 1.3085532203333012e+06 6.8567623979623255e+05 2.5968217839800381e-14 6.8532502083718998e+05 1.3720116843228678e+06 4.1166592758754872e+04 -999 1.35440369e-01 4.971798647e-01 -7.78111588e-02
 20 5 752103 1.2920091366796920e+06 6.2573822532760352e+05 2.5749098677853581e-14 6.8864144608040643e+05 1.3398806990469140e+06 3.9059287884292069e+04 -999 1.35919778e-01 4.908571487e-01 -7.80572898e-02
 21 5 752103 1.1754208480541417e+06 6.5097086921699101e+05 2.5377452172906083e-14 6.4994651061147137e+05 1.2258085944309570e+06 3.6127878249856934e+04 -999 1.36299756e-01 4.847116173e-01 -7.82526227e-02
 22 5 752103 1.0448444592329947e+06 5.7670078345053596e+05 2.4947680100684559e-14 6.0491564291654225e+05 1.0683818058311350e+06 3.3859386821574830e+04 -999 1.36711148e-01 4.773802945e-01 -7.84671606e-02
 23 5 752103 1.0518507116912333e+06 5.9479019490766642e+05 2.4553933196811859e-14 5.9361449468414823e+05 1.0761912320450973e+06 3.1996346149862471e+04 -999 1.37067479e-01 4.703512626e-01 -7.86603951e-02
 24 5 752103 1.1942984087876268e+06 6.2822497126695001e+05 2.4270943814577639e-14 6.1322249889199773e+05 1.2539362544631686e+06 3.0463212021507687e+04 -999 1.37381749e-01 4.635948809e-01 -7.88406895e-02
 25 5 752103 1.1339298475128689e+06 5.3870669120631111e+05 2.4039733800270325e-14 5.8808887039230706e+05 1.1869003392645014e+06 2.8948711362122653e+04 -999 1.37568296e-01 4.592292310e-01 -7.89541975e-02
 26 5 752103 1.0153726142232403e+06 5.3112359733158699e+05 2.3642304065696354e-14 5.5714013023211062e+05 1.0599070130237315e+06 2.6911043203687848e+04 -999 1.37744554e-01 4.542968658e-01 -7.90663812e-02
 27 5 752103 9.0507938942388329e+05 5.0982510666765366e+05 2.3193361467244410e-14 5.2025497841257229e+05 9.2842995723020495e+05 2.5314786534507781e+04 -999 1.37939673e-01 4.486765632e-01 -7.91932411e-02
 28 5 752103 9.1288560828074289e+05 5.0960686299060727e+05 2.2804092867142608e-14 5.0725695629723067e+05 9.3419022949559614e+05 2.4016214781147544e+04 -999 1.38130840e-01 4.430979134e-01 -7.93178807e-02
 29 5 752103 1.0380231340549504e+06 5.4526619652227557e+05 2.2545064620524833e-14 5.2039671227832517e+05 1.0903205722357940e+06 2.2926883896967476e+04 -999 1.38310108e-01 4.378105686e-01 -7.94327738e-02
 30 5 752103 1.0014812164110932e+06 4.7178379968207597e+05 2.2429269064842357e-14 5.0608554456983332e+05 1.0486179790041321e+06 2.1842172917213393e+04 -999 1.38427486e-01 4.342967633e-01 -7.95067576e-02
 31 5 752103 8.8747266748078028e+05 4.7238459391391574e+05 2.2194268036158544e-14 4.7431096292812930e+05 9.3245975907195068e+05 2.0350211964304159e+04 -999 1.38541645e-01 4.303162538e-01 -7.95795145e-02
 32 5 752103 7.7353296823911602e+05 4.3566717925956409e+05 2.1959071802548562e-14 4.3799113023334055e+05 7.9678354249311588e+05 1.9196312881687376e+04 -999 1.38673076e-01 4.257360478e-01 -7.96633825e-02
 33 5 752103 7.6838331004786573e+05 4.2764531251894828e+05 2.1807903316768399e-14 4.2232288850086264e+05 7.8222195901031292e+05 1.8247098353117690e+04 -999 1.38805931e-01 4.210901312e-01 -7.97483847e-02
 34 5 752103 8.4622058351179352e+05 4.4932366928965709e+05 2.1777557754714503e-14 4.2265646612733282e+05 8.8751923402423842e+05 1.7410010533787598e+04 -999 1.38915799e-01 4.172308545e-01 -7.98189462e-02
 35 5 752103 9.6943463700833544e+05 5.5014148596506810e+05 2.1803353859182016e-14 4.4319537912551913e+05 1.0445151696996806e+06 1.6678363707288383e+04 -999 1.39018983e-01 4.135962834e-01 -7.98853938e-02
 36 5 752103 8.0344861324765987e+05 4.7026191893391125e+05 2.1619851360268328e-14 4.0080195368405856e+05 8.6897917238264694e+05 1.5550594023719357e+04 -999 1.39095797e-01 4.104790884e-01 -7.99357383e-02
 37 5 752103 6.6186721654337260e+05 3.8620620652272168e+05 2.1406257123265495e-14 3.6404213713204255e+05 6.9227407678253262e+05 1.4683534366747397e+04 -999 1.39189658e-01 4.067319036e-01 -7.99972224e-02
 38 5 752103 6.3281749778790958e+05 3.6395026851207128e+05 2.1216913771452494e-14 3.4458274935915659e+05 6.4293760123877379e+05 1.3961750926418808e+04 -999 1.39287320e-01 4.029042927e-01 -8.00611286e-02
 39 5 752103 7.0173475487471744e+05 3.7791963712755067e+05 2.1116566494847399e-14 3.4340902388015419e+05 7.3071481482528558e+05 1.3334044986456771e+04 -999 1.39375713e-01 3.994972861e-01 -8.01188475e-02
 40 5 752103 7.6857980451083730e+05 3.9814471928055800e+05 2.1082046756937504e-14 3.5070740651062614e+05 8.1335751118918846e+05 1.2763420186664178e+04 -999 1.39452656e-01 3.965743345e-01 -8.01688883e-02
 41 5 752103 6.5084039491877949e+05 3.6480410737372068e+05 2.0850737961143659e-14 3.2057401318366814e+05 6.9851885079634259e+05 1.1868262763327748e+04 -999 1.39517178e-01 3.938209548e-01 -8.02114147e-02
 42 5 752103 5.3423305818796076e+05 3.1551539706671925e+05 2.0564815342701092e-14 2.8987749411500461e+05 5.6140572085580451e+05 1.1157928316947640e+04 -999 1.39594162e-01 3.906074084e-01 -8.02622099e-02
 43 5 752103 4.9877769959353167e+05 2.8763432129930408e+05 2.0279898833272981e-14 2.6941211014049314e+05 5.0476096668325504e+05 1.0552089819575294e+04 -999 1.39681456e-01 3.870486062e-01 -8.03197588e-02
 44 5 752103 5.4429829184271838e+05 2.9406100279450504e+05 2.0093684451750009e-14 2.6497134249480529e+05 5.6230837532220734e+05 1.0026522337073073e+04 -999 1.39758997e-01 3.839647436e-01 -8.03706704e-02
 45 5 752103 5.9963714049961080e+05 3.3055900345350656e+05 1.9983183963048879e-14 2.6707125280140393e+05 6.3960770275720861e+05 9.5528440795254046e+03 -999 1.39824043e-01 3.814329197e-01 -8.04130534e-02
 46 5 752103 5.0616093985516514e+05 2.7992755275982158e+05 1.9743707295045544e-14 2.4416307026950899e+05 5.4488365940235264e+05 8.8731250425212929e+03 -999 1.39882393e-01 3.789039900e-01 -8.04517421e-02
 47 5 752103 4.1427278165821452e+05 2.4621850298694716e+05 1.9460100680379806e-14 2.2112222980037992e+05 4.3830140731550334e+05 8.3074093000616776e+03 -999 1.39950310e-01 3.760253899e-01 -8.04968600e-02
 48 5 752103 3.7700476931896235e+05 2.2437414655444038e+05 1.9191032614819874e-14 2.0364841522090879e+05 3.8330682688138267e+05 7.8143768801324914e+03 -999 1.40026493e-01 3.728767982e-01 -8.05473727e-02
 49 5 752103 4.0231222007471358e+05 2.2385550787181791e+05 1.9020952094201222e-14 1.9722980156665840e+05 4.1224275317164313e+05 7.3870991757689308e+03 -999 1.40098337e-01 3.699912634e-01 -8.05946357e-02
 50 5 752103 4.4000718685704435e+05 2.3903303353292737e+05 1.8950044365366607e-14 1.9682776658036638e+05 4.6231996003436350e+05 7.0078657395149185e+03 -999 1.40162154e-01 3.674996341e-01 -8.06360673e-02
 51 5 752103 3.7665409811180102e+05 2.1103145928532426e+05 1.8742898872811277e-14 1.8015069766701874e+05 4.0278835844034166e+05 6.4807315349412693e+03 -999 1.40215998e-01 3.652191136e-01 -8.06714542e-02
 52 5 752103 3.0618934123405057e+05 1.8522503891464978e+05 1.8478193534375366e-14 1.6165747236015269e+05 3.2598448265117937e+05 6.0276563535703626e+03 -999 1.40281734e-01 3.624788307e-01 -8.07149795e-02
 53 5 752103 2.7012987013444793e+05 1.6693522356513503e+05 1.8199890243404164e-14 1.4609774646733192e+05 2.7753257570312201e+05 5.6139182696694888e+03 -999 1.40356621e-01 3.594286571e-01 -8.07645618e-02
 54 5 752103 2.7830391829774319e+05 1.6320395144763630e+05 1.8003535416417925e-14 1.3811734506081371e+05 2.8487376248613896e+05 5.2604407644530420e+03 -999 1.40429143e-01 3.565649137e-01 -8.08120973e-02
 55 5 752103 2.9721601074775984e+05 1.7041121847298724e+05 1.7907574498436548e-14 1.3468047613397537e+05 3.1095439636347903e+05 4.9463315968645848e+03 -999 1.40495712e-01 3.540233882e-01 -8.08550004e-02
 56 5 752103 2.5575378255357075e+05 1.5229433072208770e+05 1.7723769175248586e-14 1.2373210920049156e+05 2.7254723534289992e+05 4.5293986989206769e+03 -999 1.40548459e-01 3.517822253e-01 -8.08911652e-02
 57 5 752103 2.0852954817860189e+05 1.3517604162302136e+05 1.7490965698382159e-14 1.1120929947588196e+05 2.2303604745820028e+05 4.1596867203044812e+03 -999 1.40612688e-01 3.490929449e-01 -8.09355864e-02
 58 5 752103 1.7951365253714839e+05 1.2170013358410094e+05 1.7234151263088097e-14 9.9574992562667147e+04 1.8715013848195734e+05 3.8351624472775297e+03 -999 1.40688273e-01 3.460149285e-01 -8.09875822e-02
 59 5 752103 1.7721692787828151e+05 1.1638331005063854e+05 1.7056047239873802e-14 9.2281995508026434e+04 1.8269187346756971e+05 3.5607946991260956e+03 -999 1.40764194e-01 3.430501078e-01 -8.10387672e-02
 60 5 752103 1.8108991251768530e+05 1.1549807018736159e+05 1.6972971780135391e-14 8.7823984611809501e+04 1.8857134244392367e+05 3.3205461114268451e+03 -999 1.40835035e-01 3.404089568e-01 -8.10853329e-02
 61 5 752103 1.5684115805718512e+05 1.0623551177727635e+05 1.6792741967459824e-14 8.1267841807475706e+04 1.6610543227098577e+05 3.0066327582446456e+03 -999 1.40888359e-01 3.381358421e-01 -8.11242872e-02
 62 5 752103 1.2850087059961430e+05 9.6959400193326524e+04 1.6557966631188545e-14 7.3631933100924827e+04 1.3708494216154376e+05 2.7348062567371185e+03 -999 1.40953486e-01 3.354012585e-01 -8.11720195e-02
 63 5 752103 1.0788328368703800e+05 8.8645636646002953e+04 1.6292214983783709e-14 6.5930701193346671e+04 1.1320498904946345e+05 2.4978287808155346e+03 -999 1.41032840e-01 3.321811319e-01 -8.12291051e-02
 64 5 752103 1.0122478961473663e+05 8.3534369902640639e+04 1.6067572945297639e-14 6.0331179907786849e+04 1.0488096301397381e+05 2.2987749841363720e+03 -999 1.41114769e-01 3.290280441e-01 -8.12858775e-02
 65 5 752103 9.8198559733401096e+04 8.0180704992719286e+04 1.5916952712144217e-14 5.6298682320607702e+04 1.0177064053974740e+05 2.1299911983608936e+03 -999 1.41193239e-01 3.261694110e-01 -8.13383532e-02
 66 5 752103 8.5749097143326537e+04 7.5500802620978575e+04 1.5727951804917502e-14 5.1970814196891835e+04 8.9997993875338463e+04 1.9079383576196592e+03 -999 1.41246227e-01 3.237661574e-01 -8.13788567e-02
 67 5 752103 7.0866860416640484e+04 7.0432051468856807e+04 1.5487537375508848e-14 4.6852633863871844e+04 7.4747956960359530e+04 1.7221961968416774e+03 -999 1.41311071e-01 3.208316299e-01 -8.14281888e-02
 68 5 752103 5.8491024281900776e+04 6.5305398633651464e+04 1.5185325276254216e-14 4.1317984234999545e+04 6.0890033478304133e+04 1.5673024757643166e+03 -999 1.41391050e-01 3.173011360e-01 -8.14868404e-02
 69 5 752103 5.2112362679455953e+04 6.1280042131107934e+04 1.4917335142296366e-14 3.6771317521928147e+04 5.3558219147757642e+04 1.4424620129661332e+03 -999 1.41474073e-01 3.137947878e-01 -8.15441433e-02
 70 5 752103 4.7844875300276457e+04 5.8097922060282370e+04 1.4712149912144099e-14 3.3240682715957031e+04 4.8870653846319561e+04 1.3410574236071939e+03 -999 1.41553334e-01 3.105815947e-01 -8.15962271e-02
 71 5 752103 4.1919501860232711e+04 5.5057548688033930e+04 1.4495067379315338e-14 3.0282452736005223e+04 4.3061663336635393e+04 1.2142795757741033e+03 -999 1.41595487e-01 3.077068164e-01 -8.16266951e-02
 72 5 752103 3.4977099715926197e+04 5.1610128154214333e+04 1.4227900726500601e-14 2.6873689369699503e+04 3.5912978239706084e+04 1.1417391594317910e+03 -999 1.41644853e-01 3.041154542e-01 -8.16601260e-02
 73 5 752103 2.8830350439298072e+04 4.7935156965814771e+04 1.3888708283714827e-14 2.3272247877216534e+04 2.9329275672320589e+04 1.1049154948023615e+03 -999 1.41703734e-01 2.997003045e-01 -8.16935588e-02
 74 5 752103 2.5009246639382676e+04 4.4842194812512636e+04 1.3551903637489688e-14 2.0374973310519206e+04 2.5345883831408653e+04 1.1139308697299739e+03 -999 1.41763392e-01 2.952522225e-01 -8.17182213e-02
 75 5 752103 2.2488578234984197e+04 4.2355411151598812e+04 1.3283970257944794e-14 1.8279281304626467e+04 2.2868096309456054e+04 1.1635479857026926e+03 -999 1.41821067e-01 2.910454017e-01 -8.17344000e-02
 76 5 752103 1.9836467061753730e+04 3.9945737800644078e+04 1.3046827576315518e-14 1.6550641459088831e+04 2.0485062350297008e+04 1.2829918503587817e+03 -999 1.41859447e-01 2.865216222e-01 -8.17029645e-02
 77 5 752103 1.7225455060173292e+04 3.7226033380895766e+04 1.2797161897383002e-14 1.4847447327051066e+04 1.8206213251400837e+04 1.6369650159741775e+03 -999 1.41942440e-01 2.805524909e-01 -8.16586782e-02
 78 5 752103 1.5657840720054357e+04 3.4498809491077453e+04 1.2503105002352197e-14 1.3615946937798943e+04 1.7056677184823177e+04 2.3881376680840172e+03 -999 1.42123187e-01 2.730027050e-01 -8.16109094e-02
 79 5 752103 1.5373123855922711e+04 3.2404291593851292e+04 1.2257544806007741e-14 1.3078392095789215e+04 1.7177861725128827e+04 4.3449161891740923e+03 -999 1.42431201e-01 2.652104979e-01 -8.15937224e-02
 80 5 752103 1.5623362966380468e+04 3.0883059154764160e+04 1.2163630216265908e-14 1.2871531465507305e+04 1.7761361317657876e+04 5.8707800221325742e+03 -999 1.42879399e-01 2.574392023e-01 -8.16345389e-02
 81 5 752103 1.5131346996703742e+04 2.8442044232241366e+04 1.1654636442618923e-14 1.1845420466236270e+04 1.7519182334003115e+04 1.7571552392122056e+04 -999 1.43965727e-01 2.463924518e-01 -8.19131233e-02
 82 5 752103 1.5287947353540832e+04 2.6436436701262861e+04 1.1269349370745462e-14 1.1205279074938435e+04 1.7787033387458312e+04 5.0441750276045750e+04 -999 1.45934379e-01 2.304632471e-01 -8.26585803e-02
 83 5 752103 1.5986800790181840e+04 2.6383534581842690e+04 1.1117485648117163e-14 1.1147086798175431e+04 1.8419960401251832e+04 9.1366518524009894e+04 -999 1.48590164e-01 2.120909910e-01 -8.41660401e-02
 84 5 752103 1.6696867449115598e+04 2.8923929730076303e+04 1.0991711495997350e-14 1.1197207121579213e+04 1.9754660134322512e+04 1.6855447927245460e+05 -999 1.51444262e-01 1.930298120e-01 -8.65517909e-02
 85 5 752103 1.6898798915554409e+04 3.3916763639850338e+04 1.0566569479736429e-14 1.1481326015163537e+04 2.5694979397812680e+04 2.3875652124602502e+05 -999 1.52741585e-01 1.828602784e-01 -8.82732601e-02
 86 5 752103 1.4844480863996754e+04 2.0674667210807711e+04 1.2900589917119506e-14 1.0071576391415223e+04 1.6126238146456395e+04 3.9905453235091176e+05 -999 1.56210430e-01 1.529472089e-01 -9.43908069e-02
 87 5 752103 1.3221985754525931e+04 2.2608622249204192e+04 2.3110017219497198e-14 8.9228752715001538e+03 1.4215029119287266e+04 4.3051952678657119e+05 -999 1.57049161e-01 1.295924890e-01 -1.00628451e-01
 88 5 752103 1.2817407276574979e+04 3.4059726604141128e+04 2.8513553603214817e-14 8.4510565962127657e+03 1.5226576493353012e+04 4.0412759235851525e+05 -999 1.56872314e-01 1.260105328e-01 -1.01640980e-01
 89 5 752103 1.2636009854725249e+04 3.6185878198550396e+04 3.1232279853046923e-14 8.2340833804109752e+03 1.5402550972074583e+04 2.0831313002665507e+05 -999 1.56806262e-01 1.246425894e-01 -1.02017195e-01
 90 5 752103 1.2494548593155550e+04 3.7552614283366645e+04 3.3624482864797521e-14 8.0241840091190152e+03 1.5563364583080169e+04 9.1469586390335040e+04 -999 1.56753523e-01 1.235749375e-01 -1.02309858e-01
 91 5 752103 1.0679695179936909e+04 1.9910453011409692e+04 2.8366392263701567e-13 6.0916763566681038e+03 1.1180139914187659e+04 2.6297314248944994e+05 -999 1.55527468e-01 1.118928847e-01 -1.04983971e-01
 92 5 752103 9.4665612753878522e+03 1.5847823174792382e+04 3.9864009937748420e-13 5.0033662400159465e+03 9.5727481522298076e+03 1.2854613503304704e+05 -999 1.55809609e-01 1.038969006e-01 -1.07207998e-01
 93 5 752103 8.8813972735536954e+03 1.3743330460981857e+04 4.3066036079192471e-13 4.4710628879678898e+03 8.8182048476221553e+03 5.5093694605673874e+04 -999 1.57671103e-01 9.847895104e-02 -1.09355480e-01
 94 5 752103 8.5649189190471461e+03 1.2810342336678916e+04 4.3688646241154953e-13 4.3051083343177042e+03 8.6035458072020792e+03 2.0277133379848776e+04 -999 1.59234655e-01 9.610769106e-02 -1.10593528e-01
 95 5 752103 8.5949663534690008e+03 1.2258233682693344e+04 4.3802671347600746e-13 4.2297460848753444e+03 8.9995703923335677e+03 1.7768187228535811e+04 -999 1.60773173e-01 9.429244467e-02 -1.11675876e-01
 96 5 752103 6.2577020432978143e+03 9.2693593005372568e+03 1.1853540202326002e-12 3.6233933023040240e+03 6.4429215865463948e+03 7.6313563118875420e+04 -999 1.85820473e-01 8.197596480e-02 -1.25837506e-01
 97 5 752103 5.8144761309931428e+03 8.2150265454153014e+03 1.0425936416353059e-12 3.3557885399431611e+03 6.3860037653213876e+03 1.3075958685585641e+05 -999 2.20878679e-01 7.315173439e-02 -1.42537996e-01
 98 5 752103 5.7362064180111593e+03 6.6823538339511988e+03 6.0573812068520250e-13 2.8851811533510263e+03 6.8840190885597503e+03 1.7469564358155036e+05 -999 2.60609772e-01 6.606026410e-02 -1.58876543e-01
 99 5 752103 5.3817541338853252e+03 7.2046811992417515e+03 5.2841185835107736e-13 3.1457718466776100e+03 7.2453242221227656e+03 1.4628910376883773e+05 -999 2.96583946e-01 6.033409723e-02 -1.70950370e-01
 100 5 752103 4.4224228430771382e+03 6.4193567743680178e+03 5.6498236870138399e-13 2.8951428899467360e+03 6.5833878827440521e+03 9.0033721222422682e+04 -999 3.11443699e-01 5.799971165e-02 -1.74669187e-01
 101 5 752103 3.5303137319613143e+03 5.7102987195765299e+03 5.9389398585455963e-13 2.4405003901643604e+03 5.1005087382593920e+03 4.0358834328651959e+04 -999 3.28403692e-01 5.547538414e-02 -1.78312476e-01
 102 5 752103 3.0372640890373200e+03 5.3617863670994511e+03 7.9729535575093099e-13 2.6026679746834770e+03 3.6193760710836573e+03 5.2188359176735517e+04 -999 3.52639263e-01 5.218163675e-02 -1.82832524e-01
 103 5 752103 2.8359938180955833e+03 4.9449184487788962e+03 8.3244261374204857e-13 2.8233540984217866e+03 3.0265683151730732e+03 5.9978175629501493e+04 -999 3.81082667e-01 4.880295176e-02 -1.87084923e-01
 104 5 752103 2.8879274557562367e+03 4.4462800478604813e+03 7.1571927567904509e-13 2.8547029580939757e+03 2.9424184690103439e+03 6.2210810903495418e+04 -999 4.12265139e-01 4.559023433e-02 -1.90402258e-01
 105 5 752103 2.9108537712091193e+03 4.3393670308852461e+03 6.2055969051952665e-13 2.6779845970774727e+03 2.9671696612569413e+03 2.2298822715995331e+04 -999 4.26345045e-01 4.440359007e-02 -1.91260487e-01
 106 5 752103 3.2175199363140364e+03 3.1520484326546175e+03 6.3503021732124814e-13 1.3477899463591568e+03 3.2278520836550265e+03 3.7789996682834244e+04 -999 4.48391752e-01 4.285694179e-02 -1.93330033e-01
 107 5 752103 3.5784878622810302e+03 2.9903060314550635e+03 6.7205058215175236e-13 1.2540627485498451e+03 3.6068064895720613e+03 2.6032430446054663e+04 -999 4.69854977e-01 4.190342582e-02 -1.94798161e-01
 108 5 752103 3.6478611097556181e+03 2.8720887856916834e+03 6.0102212189720757e-13 1.1168178545468652e+03 3.6913441794057944e+03 1.4477006793626506e+04 -999 4.81570187e-01 4.143946844e-02 -1.95109197e-01
 109 5 752103 3.6799599533218002e+03 2.7756253978725663e+03 5.2671784241991344e-13 9.9809484302328804e+02 3.7257512365678799e+03 1.2272046792654335e+04 -999 4.90268228e-01 4.109798100e-02 -1.95063227e-01
 110 5 752103 3.7192728922733372e+03 2.6970273267213788e+03 4.4785618163787252e-13 8.8743271711045088e+02 3.7651023611709306e+03 1.1612807800746621e+04 -999 4.98749552e-01 4.076959403e-02 -1.94837219e-01
 111 5 752103 3.5032170321369067e+03 2.5391615804188591e+03 3.3639039884946353e-13 7.0959456850478318e+02 3.5099635756097205e+03 1.2312796951360280e+04 -999 5.12220520e-01 4.028160066e-02 -1.94146705e-01
 112 5 752103 3.4626209878289951e+03 2.4541057300617263e+03 3.9466175339160930e-13 6.5978723061152175e+02 3.4541471121002323e+03 1.1812444414576526e+04 -999 5.25336782e-01 3.987399363e-02 -1.93078250e-01
 113 5 752103 3.4926293163174669e+03 2.4160957092911017e+03 4.2819278702559658e-13 6.2343866707783491e+02 3.4936440664809720e+03 1.1130088291519831e+04 -999 5.37144773e-01 3.957550804e-02 -1.91839192e-01
 114 5 752103 3.4901659690567230e+03 2.3818795507000214e+03 4.3394993265022426e-13 6.0135173816297299e+02 3.4961168854079028e+03 1.0157834436456209e+04 -999 5.45518964e-01 3.941251582e-02 -1.90796992e-01
 115 5 752103 3.4784179937363601e+03 2.3443514795645933e+03 4.3322455455683939e-13 5.8758030354353559e+02 3.4843961487519255e+03 9.1953098170600806e+03 -999 5.51835296e-01 3.932275677e-02 -1.89919456e-01
 116 5 752103 3.3135824599722323e+03 2.2510870250682633e+03 4.8928497472239735e-13 5.5537784246176068e+02 3.2931981216858885e+03 8.9764910468277849e+03 -999 5.58713654e-01 3.927524659e-02 -1.88842744e-01
 117 5 752103 3.1788116847881947e+03 2.1677618507588904e+03 7.0140157746719050e-13 5.3142034338294616e+02 3.1352167051256183e+03 8.9176904984033481e+03 -999 5.66808661e-01 3.925739584e-02 -1.87474214e-01
 118 5 752103 3.0885541329831658e+03 2.1023123594627768e+03 8.3760771248292788e-13 5.0160881977038491e+02 3.0337876752564453e+03 8.6567299155744913e+03 -999 5.75108970e-01 3.927094879e-02 -1.86036904e-01
 119 5 752103 3.0268582268099221e+03 2.0624622358681950e+03 8.9131680984565593e-13 4.7922081460940564e+02 2.9697679857921667e+03 8.2240705771857411e+03 -999 5.81801465e-01 3.931106366e-02 -1.84789215e-01
 120 5 752103 2.9853767307338458e+03 2.0419517739417527e+03 9.0969558068211701e-13 4.7001229422009646e+02 2.9251080973400421e+03 7.6704078847141664e+03 -999 5.86814625e-01 3.935065097e-02 -1.83834698e-01
 121 5 752103 2.8992349049055620e+03 1.9786142367344858e+03 7.4248246778343935e-13 4.5417488746365416e+02 2.8349202094637667e+03 7.6035240692681527e+03 -999 5.91457015e-01 3.940383571e-02 -1.82936289e-01
 122 5 752103 2.8177117852663077e+03 1.9229655219562858e+03 6.6488008585298832e-13 4.3677059744324248e+02 2.7485413004531001e+03 7.9971252700483401e+03 -999 5.97320649e-01 3.948274683e-02 -1.81794155e-01
 123 5 752103 2.7513582461127844e+03 1.8759001309423738e+03 6.9723064975844632e-13 4.1545092348671318e+02 2.6766089275681929e+03 8.4127487669966085e+03 -999 6.04444607e-01 3.958747771e-02 -1.80393515e-01
 124 5 752103 2.7122262322298247e+03 1.8434466341375078e+03 7.3275626485397635e-13 4.0309125870194941e+02 2.6322924820195663e+03 7.7090769858339909e+03 -999 6.08904126e-01 3.964865073e-02 -1.79514642e-01
 125 5 752103 2.6797849997447161e+03 1.8235648411760624e+03 7.4862071332910791e-13 3.9483773162061243e+02 2.5984054373846470e+03 7.7876023158568887e+03 -999 6.13486163e-01 3.970254286e-02 -1.78610034e-01
 126 5 752103 2.6076828562235974e+03 1.7924006563794217e+03 6.3514391602268273e-13 3.9285856039714946e+02 2.5261226200447413e+03 7.4941648817261757e+03 -999 6.17522334e-01 3.974598559e-02 -1.77810289e-01
 127 5 752103 2.5563248835660183e+03 1.7604589674964707e+03 6.3531088943606676e-13 3.8867264729288667e+02 2.4694124045394883e+03 7.8720897695144131e+03 -999 6.22466913e-01 3.979032257e-02 -1.76853225e-01
 128 5 752103 2.5302510936026401e+03 1.7274438673760326e+03 7.1614647687467745e-13 3.8468326114751721e+02 2.4397450742057035e+03 8.0172764208268745e+03 -999 6.28036763e-01 3.982329766e-02 -1.75808259e-01
 129 5 752103 2.5221920938766971e+03 1.7220626452961521e+03 7.8179063002193467e-13 3.8119848037499497e+02 2.4313107351024578e+03 7.9139431644187816e+03 -999 6.32992890e-01 3.982582229e-02 -1.74902806e-01
 130 5 752103 2.5146887278280542e+03 1.7037648011962242e+03 8.1952647114245001e-13 3.7659019085841095e+02 2.4212541446027085e+03 7.3445404508698048e+03 -999 6.36421130e-01 3.980876479e-02 -1.74292084e-01
 131 5 752103 2.4386285452576153e+03 1.6737278597955105e+03 6.4925533916209467e-13 3.7611478741352204e+02 2.3446786346799831e+03 7.3644172116115033e+03 -999 6.40170049e-01 3.978272659e-02 -1.73649762e-01
 132 5 752103 2.3869202283779100e+03 1.6386238151359266e+03 5.4882227892828111e-13 3.7465594403658400e+02 2.2912190249886698e+03 7.6727478141807042e+03 -999 6.44854487e-01 3.973021225e-02 -1.72875377e-01
 133 5 752103 2.3669438537166147e+03 1.6014590475242155e+03 5.4859490596971208e-13 3.7264777638390683e+02 2.2682984135112420e+03 7.7016198533706292e+03 -999 6.49994262e-01 3.963995070e-02 -1.72067905e-01
 134 5 752103 2.3735331556491501e+03 1.5803167901369288e+03 5.7964857680590496e-13 3.7603994590459843e+02 2.2732665273680632e+03 7.3682877310802560e+03 -999 6.54445706e-01 3.952568027e-02 -1.71402576e-01
 135 5 752103 2.3945039709672587e+03 1.5991006978964165e+03 6.0412189172376589e-13 3.8037391520254727e+02 2.2950093184459961e+03 6.8289994487182812e+03 -999 6.57719587e-01 3.941610690e-02 -1.70932609e-01
 136 5 752103 2.3285226184453504e+03 1.5490710570660676e+03 5.0577609458127952e-13 3.7515731720278995e+02 2.2280064874379432e+03 6.6011738639997884e+03 -999 6.60648574e-01 3.930456269e-02 -1.70542660e-01
 137 5 752103 2.2909716656020860e+03 1.4991819449855636e+03 4.3355468351055797e-13 3.7624509688958614e+02 2.1864705050366365e+03 6.8349941286408211e+03 -999 6.64319685e-01 3.914313318e-02 -1.70065183e-01
 138 5 752103 2.3007470658308694e+03 1.4609092983623091e+03 4.1149715323308625e-13 3.7924396947282696e+02 2.1960257032882632e+03 7.0230968635458430e+03 -999 6.68903471e-01 3.890968742e-02 -1.69495074e-01
 139 5 752103 2.3185473382023224e+03 1.4346254218953902e+03 4.2124992866872692e-13 3.7458459758923323e+02 2.2150526009833179e+03 6.6140045661785125e+03 -999 6.72299735e-01 3.870470095e-02 -1.69093953e-01
 140 5 752103 2.3308125801763872e+03 1.4189811912883547e+03 4.3177563050607247e-13 3.7643685322337291e+02 2.2294883426585652e+03 6.5539784196528908e+03 -999 6.75310974e-01 3.850107420e-02 -1.68753538e-01
 141 5 752103 2.2528214950959464e+03 1.3828122854670276e+03 3.6533680229727499e-13 3.7386857390679751e+02 2.1492241783630366e+03 6.7370293170226141e+03 -999 6.78154677e-01 3.829428848e-02 -1.68461815e-01