TITLE = "005.02 ALPHA 3.10 GRIDLEVEL 4"

VARIABLES = "ITERATION"  "GRID_LEVEL"  "GRID_SIZE"  "CONTINUITY"  "MOMENTUMX"  "MOMENTUMY"  "MOMENTUMZ"  "ENERGY"  "TURB1"  "TURB2"  "CL_TOT"  "CD_TOT"  "CM_TOT"

DATASETAUXDATA ParticipantID   = "005"
DATASETAUXDATA SubmissionDate  = "10-31-2024"
DATASETAUXDATA Name            = "Jeffrey A. Housman"
DATASETAUXDATA Email           = "jeffrey.a.housman@nasa.gov"
DATASETAUXDATA Institution     = "NASA Ames Research Center"
DATASETAUXDATA SolverName      = "LAVA Curvilinear"
DATASETAUXDATA BasicAlgorithm  = "RANS"
DATASETAUXDATA TurbulenceModel = "SA-RC-comp-neg"
DATASETAUXDATA GridId          = "Multiblock"
DATASETAUXDATA Discretization  = "Finite difference"
DATASETAUXDATA Order           = "2"
DATASETAUXDATA DistanceCalc    = "Exact"
DATASETAUXDATA Notes           = " "

ZONE T = "005.02 - Alpha 3.10 - Grid Level 4"
AUXDATA Tstatic         = "271.0"
AUXDATA Deltat          = "-999"
AUXDATA GridFileName    = "ONERA-OAT15A_230mmChord_780mmSpan_upZ_2024_06_25-Structured_23mm_Level-4.x"
AUXDATA Misc            = " "
 0 4 430284 3.7527659854609385e+05 1.0590512076699333e+06 6.4510842026706180e-14 3.5404951793768688e+05 3.9257120044486254e+05 1.8149996816665798e+06 -999 1.30598666e-02 7.530389274e-01 -7.41408878e-03
 1 4 430284 5.4411514966890262e+05 8.0961486107503937e+05 5.5800143217952820e-14 2.7709637369932543e+05 5.2993512005628052e+05 1.1754610665621883e+06 -999 4.73370975e-02 7.034376113e-01 -2.20032745e-02
 2 4 430284 6.6439361231053167e+05 7.0160939699897205e+05 4.9259113019330871e-14 3.0547854713270318e+05 6.3782848241511814e+05 7.6419401541317732e+05 -999 8.75760869e-02 6.775012162e-01 -3.89255394e-02
 3 4 430284 7.7644932844802574e+05 6.3207279741490388e+05 4.4169993397390812e-14 3.6156733053691272e+05 7.4387214941585809e+05 4.9712071507773321e+05 -999 1.23761394e-01 6.627448334e-01 -5.44692535e-02
 4 4 430284 8.7893112807390024e+05 5.8101076607173332e+05 4.0150556753607701e-14 4.2998470025567751e+05 8.4983617852931190e+05 3.1766911184163910e+05 -999 1.55859209e-01 6.546852525e-01 -6.67364885e-02
 5 4 430284 9.8169731275371136e+05 5.8378730794132489e+05 3.6955385700989549e-14 5.0323489467059058e+05 9.6829236081574473e+05 2.0243763402672502e+05 -999 1.80482014e-01 6.492305797e-01 -7.59251000e-02
 6 4 430284 9.0022548583904619e+05 6.2430298021696275e+05 3.4501386347423450e-14 5.3188267936575995e+05 8.9057112968706235e+05 1.0163833743314407e+05 -999 1.97472710e-01 6.377601823e-01 -8.29424442e-02
 7 4 430284 9.2314314365593891e+05 6.3927223320215696e+05 3.2272459944669236e-14 5.5434033002996596e+05 9.0930999042871664e+05 8.0294203486561193e+04 -999 2.11419955e-01 6.230559184e-01 -8.92094639e-02
 8 4 430284 9.8339269750323985e+05 6.3253112469665741e+05 3.0630632096749231e-14 5.6622482934298692e+05 9.8964718983614095e+05 6.8746142439446310e+04 -999 2.22331801e-01 6.065873996e-01 -9.39046536e-02
 9 4 430284 1.1851999444959071e+06 6.8781538553527056e+05 2.9214860494864195e-14 6.2368373459637561e+05 1.2322869986530005e+06 6.1533512262471602e+04 -999 2.33432856e-01 5.863950419e-01 -9.82172232e-02
 10 4 430284 1.1113030039515747e+06 5.8327974133790529e+05 2.8420403560675202e-14 5.9344437640778278e+05 1.1500415371482882e+06 5.5413572315538448e+04 -999 2.39250636e-01 5.745794195e-01 -1.00402935e-01
 11 4 430284 1.0212459189489391e+06 5.6932517452555604e+05 2.7463761457802746e-14 5.7979062611379137e+05 1.0407160988812272e+06 4.9925382307310283e+04 -999 2.45975847e-01 5.600837386e-01 -1.03018312e-01
 12 4 430284 9.5022063169262896e+05 5.7388028919501067e+05 2.6703324115580271e-14 5.5709975950871932e+05 9.6186514888345031e+05 4.5596176154190747e+04 -999 2.51310825e-01 5.476536496e-01 -1.05022226e-01
 13 4 430284 1.0511812806485835e+06 5.8418414041878690e+05 2.6141443940936506e-14 5.7853127862513158e+05 1.0816898662552107e+06 4.2383622221135316e+04 -999 2.56574499e-01 5.341280034e-01 -1.07000033e-01
 14 4 430284 9.8173217371548386e+05 5.1503962991306576e+05 2.5721881571547670e-14 5.4328122708193201e+05 1.0063428733012530e+06 3.9536063055268642e+04 -999 2.59297605e-01 5.261600939e-01 -1.08079437e-01
 15 4 430284 1.1540590288930899e+06 6.5704893983420986e+05 2.5319951792701363e-14 5.8896698093185469e+05 1.2295059858909023e+06 3.7218212925198757e+04 -999 2.62303344e-01 5.166839634e-01 -1.09378988e-01
 16 4 430284 9.7551780456268089e+05 5.8160999486782227e+05 2.4877622927442580e-14 5.3093347145454853e+05 1.0338130200118379e+06 3.4099913911545664e+04 -999 2.64160718e-01 5.098176136e-01 -1.10244575e-01
 17 4 430284 8.6656018470220140e+05 4.8317580841090891e+05 2.4366793706748652e-14 4.9935513994338328e+05 8.8043274805283407e+05 3.1611429358005917e+04 -999 2.66367927e-01 5.008721889e-01 -1.11258038e-01
 18 4 430284 8.2453291603861097e+05 4.7368949116074952e+05 2.3949914048276635e-14 4.7820762438143103e+05 8.3361655032513267e+05 2.9519857448871844e+04 -999 2.67930247e-01 4.936576906e-01 -1.11923759e-01
 19 4 430284 9.5911192568081757e+05 5.1371057530199853e+05 2.3591771414987373e-14 4.9371434618081903e+05 1.0075278049351397e+06 2.7811525516271984e+04 -999 2.69418062e-01 4.861147207e-01 -1.12486610e-01
 20 4 430284 8.7978029220904107e+05 4.1914276073614380e+05 2.3398538912918302e-14 4.6756910232162126e+05 9.1237261303001293e+05 2.6252202759333282e+04 -999 2.70303339e-01 4.811987655e-01 -1.12772906e-01
 21 4 430284 8.0215427193445212e+05 4.2618281383039179e+05 2.3076115475471721e-14 4.4653818514172186e+05 8.2965885986642435e+05 2.4272778961752971e+04 -999 2.71167154e-01 4.755983424e-01 -1.13029285e-01
 22 4 430284 7.2095388226196845e+05 4.1246021770939493e+05 2.2727145398503301e-14 4.1672369505478791e+05 7.3774301228206139e+05 2.2668908311742536e+04 -999 2.72039635e-01 4.694658138e-01 -1.13277472e-01
 23 4 430284 7.4297543403903174e+05 4.1262695529717713e+05 2.2420050283914831e-14 4.0957914611940557e+05 7.6082365167429391e+05 2.1345767416514675e+04 -999 2.72900708e-01 4.627602651e-01 -1.13519433e-01
 24 4 430284 7.4451096175816376e+05 3.7305145622144005e+05 2.2260361134968023e-14 4.0078198433645297e+05 7.6148733168306563e+05 2.0178172801358225e+04 -999 2.73492067e-01 4.576315751e-01 -1.13690712e-01
 25 4 430284 8.0878636798430106e+05 4.1389969762124564e+05 2.2130413395233160e-14 4.0012026725426520e+05 8.5458239232358406e+05 1.9108969202691875e+04 -999 2.73977343e-01 4.531297901e-01 -1.13837758e-01
 26 4 430284 6.8210721633951610e+05 3.6741319356072764e+05 2.1891541711659117e-14 3.6877918229154201e+05 7.1823486958689685e+05 1.7743760536593276e+04 -999 2.74390629e-01 4.485170788e-01 -1.13963586e-01
 27 4 430284 6.0152111073559569e+05 3.4777222981123207e+05 2.1659817475665450e-14 3.4496612376519211e+05 6.1708380294207938e+05 1.6636359520934282e+04 -999 2.74814227e-01 4.435836395e-01 -1.14095993e-01
 28 4 430284 6.1204513234993769e+05 3.3774152805610583e+05 2.1469548588102344e-14 3.3441148319120693e+05 6.2375857110149821e+05 1.5710914360715253e+04 -999 2.75261845e-01 4.381880851e-01 -1.14239285e-01
 29 4 430284 6.2583017341379484e+05 3.1737367158305133e+05 2.1330114101859649e-14 3.2775736343137000e+05 6.4368811239913735e+05 1.4904440926261505e+04 -999 2.75590688e-01 4.341200611e-01 -1.14345873e-01
 30 4 430284 6.8935879883988784e+05 3.6446996817670134e+05 2.1208130677721373e-14 3.3022489731728320e+05 7.3242159998886299e+05 1.4174948890543446e+04 -999 2.75879107e-01 4.304823176e-01 -1.14438272e-01
 31 4 430284 5.7821797913218231e+05 3.1826917737432278e+05 2.0981227694744472e-14 3.0210796526703547e+05 6.1476662202458002e+05 1.3180012978113948e+04 -999 2.76117973e-01 4.269113652e-01 -1.14509262e-01
 32 4 430284 4.9224606923809514e+05 2.8852392321526189e+05 2.0722556143157030e-14 2.7748621530446713e+05 5.0924818564463040e+05 1.2349303756419660e+04 -999 2.76390618e-01 4.228083588e-01 -1.14589566e-01
 33 4 430284 4.7737957113762293e+05 2.7506044846953993e+05 2.0488824326701711e-14 2.6244992946495471e+05 4.8496679549258418e+05 1.1646394386410740e+04 -999 2.76669201e-01 4.185849604e-01 -1.14671511e-01
 34 4 430284 5.3399833543074492e+05 2.8330583242711291e+05 2.0321752016479073e-14 2.6254971079980861e+05 5.5452570448579523e+05 1.1039113122921626e+04 -999 2.76929740e-01 4.145954397e-01 -1.14748463e-01
 35 4 430284 5.2971572586100188e+05 2.6196402635390277e+05 2.0228155975551503e-14 2.5695302383740959e+05 5.5412742735015275e+05 1.0489524643854296e+04 -999 2.77108911e-01 4.118166469e-01 -1.14801705e-01
 36 4 430284 4.5880347764747695e+05 2.5226595864544663e+05 2.0016869723994919e-14 2.3708445779199878e+05 4.8423160758538463e+05 9.7833345067506325e+03 -999 2.77282942e-01 4.086899817e-01 -1.14850689e-01
 37 4 430284 3.8814013476610050e+05 2.3073429478714021e+05 1.9772933043859845e-14 2.1552004585262379e+05 4.0341379653265851e+05 9.1885502704435312e+03 -999 2.77477597e-01 4.052458300e-01 -1.14906355e-01
 38 4 430284 3.6931038770322682e+05 2.1449603530219744e+05 1.9531601857501894e-14 2.0103627682131273e+05 3.7368868354936712e+05 8.6573519280714227e+03 -999 2.77693959e-01 4.014685951e-01 -1.14969090e-01
 39 4 430284 3.9970295106827712e+05 2.1419480348845341e+05 1.9364522477650434e-14 1.9753672634828615e+05 4.1208116167911544e+05 8.1925428147364673e+03 -999 2.77883141e-01 3.982038348e-01 -1.15024623e-01
 40 4 430284 4.2790500768661418e+05 2.3303967558705623e+05 1.9255385121928133e-14 1.9679582038436824e+05 4.5353095454141230e+05 7.7796529688655055e+03 -999 2.78033073e-01 3.956350425e-01 -1.15069117e-01
 41 4 430284 3.6287950017591851e+05 2.0385555295047225e+05 1.9035642052874405e-14 1.8015607088485715e+05 3.8748067437587969e+05 7.2579951719837172e+03 -999 2.78167947e-01 3.930224501e-01 -1.15107049e-01
 42 4 430284 2.9897627518390026e+05 1.8445588576576751e+05 1.8772359470633927e-14 1.6300878290040698e+05 3.1369915991837118e+05 6.8125542775447702e+03 -999 2.78327646e-01 3.900025261e-01 -1.15152644e-01
 43 4 430284 2.7384495413384453e+05 1.6845295585637688e+05 1.8495458529175586e-14 1.5001837499554324e+05 2.7716656428327499e+05 6.4158050982051200e+03 -999 2.78502784e-01 3.867671781e-01 -1.15203350e-01
 44 4 430284 2.9473220785037434e+05 1.6979870733546684e+05 1.8268407058453874e-14 1.4544362456453472e+05 3.0221454361859168e+05 6.0584862182655133e+03 -999 2.78664823e-01 3.838327049e-01 -1.15250841e-01
 45 4 430284 3.2611277771972213e+05 1.8152028421180515e+05 1.8097049259648197e-14 1.4578855002206063e+05 3.4252868662315101e+05 5.7398423375306429e+03 -999 2.78809666e-01 3.812435751e-01 -1.15293750e-01
 46 4 430284 2.7582488266196160e+05 1.6300039416455128e+05 1.7885894824040786e-14 1.3328779980100333e+05 2.9547046041138947e+05 5.3248799450576698e+03 -999 2.78925205e-01 3.789465064e-01 -1.15326294e-01
 47 4 430284 2.2077321631652515e+05 1.4348226829880165e+05 1.7621300260427895e-14 1.1878778937264823e+05 2.3457090042167323e+05 4.9700317685765249e+03 -999 2.79067464e-01 3.762011476e-01 -1.15366730e-01
 48 4 430284 1.9367081721638492e+05 1.2953131128616013e+05 1.7335574212107103e-14 1.0696136010946950e+05 1.9724839476474928e+05 4.6623095569619336e+03 -999 2.79228482e-01 3.731691392e-01 -1.15413130e-01
 49 4 430284 2.0274329393452869e+05 1.2828044567887389e+05 1.7093960664108558e-14 1.0135133919493097e+05 2.0765753324058923e+05 4.3600215595291547e+03 -999 2.79380345e-01 3.703732199e-01 -1.15457516e-01
 50 4 430284 2.2002590447940177e+05 1.3672572164996149e+05 1.6911425463244998e-14 9.9336623795268533e+04 2.3236134532592681e+05 4.1029993016207927e+03 -999 2.79511405e-01 3.679981327e-01 -1.15496421e-01
 51 4 430284 1.8648842590516031e+05 1.1981264892800084e+05 1.6709209646059413e-14 9.0603940444243970e+04 2.0044656474519425e+05 3.7627038056926745e+03 -999 2.79623688e-01 3.657773702e-01 -1.15528485e-01
 52 4 430284 1.4983870777945293e+05 1.0606448116599671e+05 1.6465532921501077e-14 8.1008880138578126e+04 1.6114329380691933e+05 3.4669092741391387e+03 -999 2.79757931e-01 3.631779636e-01 -1.15567415e-01
 53 4 430284 1.2744283321187721e+05 9.5869289153379897e+04 1.6181053528729907e-14 7.2190710963846082e+04 1.3275316241109741e+05 3.2017604966595422e+03 -999 2.79914982e-01 3.602027554e-01 -1.15613763e-01
 54 4 430284 1.2650905043638233e+05 9.2228583226857227e+04 1.5933085538305563e-14 6.6918707046122538e+04 1.3040712918478831e+05 2.9693184812339405e+03 -999 2.80067233e-01 3.573769047e-01 -1.15659789e-01
 55 4 430284 1.3092920542460769e+05 9.2395813548672013e+04 1.5731172509148212e-14 6.3926332965532813e+04 1.3713538345025349e+05 2.7716444775705677e+03 -999 2.80202918e-01 3.548918094e-01 -1.15702181e-01
 56 4 430284 1.1274718947639367e+05 8.4953767071233364e+04 1.5538087256763868e-14 5.9011174408232990e+04 1.2031579890905778e+05 2.4973651172171226e+03 -999 2.80314172e-01 3.526737586e-01 -1.15736737e-01
 57 4 430284 9.1393813763706174e+04 7.7611406688883479e+04 1.5300341102489166e-14 5.3285419761002086e+04 9.8388941249772717e+04 2.2567583210572088e+03 -999 2.80451127e-01 3.499860263e-01 -1.15780105e-01
 58 4 430284 7.5631360639494669e+04 7.1072398262939780e+04 1.5001778446629301e-14 4.7570697268996839e+04 7.9945400835896580e+04 2.0506338944364547e+03 -999 2.80614430e-01 3.468338642e-01 -1.15833180e-01
 59 4 430284 7.0428022573320399e+04 6.7194299592272699e+04 1.4723922768112642e-14 4.3468812283926076e+04 7.3199388702335898e+04 1.8766886077627819e+03 -999 2.80778085e-01 3.437182720e-01 -1.15888611e-01
 60 4 430284 6.8370982499423000e+04 6.4763367644704063e+04 1.4495415241069957e-14 4.0630526871089933e+04 7.1060886604081476e+04 1.7297858424173855e+03 -999 2.80926711e-01 3.409035558e-01 -1.15942025e-01
 61 4 430284 5.9698405057333315e+04 6.1316058266855471e+04 1.4281554301792268e-14 3.7700652516651920e+04 6.2786613677958740e+04 1.5413353365670316e+03 -999 2.81041501e-01 3.384474717e-01 -1.15982502e-01
 62 4 430284 4.9479762573066480e+04 5.7570718753671521e+04 1.4004878630005688e-14 3.4253023722369500e+04 5.2196876593537592e+04 1.3824693701768633e+03 -999 2.81181789e-01 3.354429301e-01 -1.16032536e-01
 63 4 430284 4.0981859526031301e+04 5.3741564292479561e+04 1.3669901754633496e-14 3.0552379493042667e+04 4.2539942855900605e+04 1.2506185002071716e+03 -999 2.81349610e-01 3.318268841e-01 -1.16093528e-01
 64 4 430284 3.6556750897326441e+04 5.0685771480132164e+04 1.3341427662718956e-14 2.7525512303696876e+04 3.7347936541546558e+04 1.1435895054635423e+03 -999 2.81513554e-01 3.282294794e-01 -1.16155576e-01
 65 4 430284 3.3688640020492719e+04 4.8273263656990624e+04 1.3052222149343935e-14 2.5177168747483618e+04 3.4148236722535759e+04 1.0568046072422703e+03 -999 2.81659643e-01 3.249115672e-01 -1.16214803e-01
 66 4 430284 2.9926353536602797e+04 4.5968956163485491e+04 1.2795793561484885e-14 2.3236814793352532e+04 3.0379478893614956e+04 9.5321587320588014e+02 -999 2.81748756e-01 3.218423395e-01 -1.16243522e-01
 67 4 430284 2.5600905269089850e+04 4.3310034558663247e+04 1.2480967413720712e-14 2.0829817732172542e+04 2.5885108043962544e+04 8.7085752961162996e+02 -999 2.81851959e-01 3.179551476e-01 -1.16269432e-01
 68 4 430284 2.1847886846142152e+04 4.0446521507684811e+04 1.2099162159511680e-14 1.8302998985664351e+04 2.1928111314866459e+04 8.1564664603767369e+02 -999 2.81962563e-01 3.131839568e-01 -1.16289338e-01
 69 4 430284 1.9520847895879710e+04 3.7988834830097097e+04 1.1715133852057064e-14 1.6274345079726521e+04 1.9653285020436240e+04 8.0828022521716684e+02 -999 2.82055394e-01 3.083709110e-01 -1.16296668e-01
 70 4 430284 1.8023697514623098e+04 3.5982622784942949e+04 1.1406008045517897e-14 1.4780224960952490e+04 1.8370403413727250e+04 8.1422566028849906e+02 -999 2.82127346e-01 3.037990739e-01 -1.16294265e-01
 71 4 430284 1.6246317420372703e+04 3.3940775100024686e+04 1.1074731403905954e-14 1.3470763492746406e+04 1.6931401412420029e+04 8.4574889522567696e+02 -999 2.82143122e-01 2.986404551e-01 -1.16217446e-01
 72 4 430284 1.4683554209265329e+04 3.1644167162170157e+04 1.0688271661038619e-14 1.2287214633018046e+04 1.5772670670290558e+04 9.2551503810441795e+02 -999 2.82185236e-01 2.917994143e-01 -1.16106312e-01
 73 4 430284 1.3996453928409197e+04 2.9386470284794530e+04 1.0278970498701678e-14 1.1620582507316043e+04 1.5496047570701121e+04 1.1304346222022846e+03 -999 2.82296920e-01 2.833122072e-01 -1.15973785e-01
 74 4 430284 1.4164915164837817e+04 2.7633138108319352e+04 9.9596438530712410e-15 1.1557480347279421e+04 1.5977903410013150e+04 1.4923186348113557e+03 -999 2.82514412e-01 2.746156702e-01 -1.15874810e-01
 75 4 430284 1.4608657548078592e+04 2.6302737769264979e+04 9.7211960632854725e-15 1.1713400281105020e+04 1.6645678191926887e+04 1.9969286097723043e+03 -999 2.82856727e-01 2.659526024e-01 -1.15844433e-01
 76 4 430284 1.4282838222146127e+04 2.4250348067420106e+04 9.3986505832871121e-15 1.0851265017010050e+04 1.6506079018497563e+04 3.7118299796783845e+03 -999 2.83586821e-01 2.537991452e-01 -1.15957819e-01
 77 4 430284 1.4389553633773567e+04 2.2561766115560735e+04 9.2173974808313181e-15 1.0296565180877407e+04 1.6620987455006467e+04 1.0557005300267459e+04 -999 2.84955672e-01 2.366966224e-01 -1.16422691e-01
 78 4 430284 1.4631205122344805e+04 2.2353066602638763e+04 9.1284930277653144e-15 1.0192992488882630e+04 1.6655885452238843e+04 2.3912232129016622e+04 -999 2.86771162e-01 2.179653999e-01 -1.17494605e-01
 79 4 430284 1.4783762105160456e+04 2.2955614616620489e+04 8.9810839302012957e-15 1.0300241747172231e+04 1.6505240520091320e+04 4.9960899997238841e+04 -999 2.88459476e-01 1.993744511e-01 -1.19236205e-01
 80 4 430284 1.5201186866781143e+04 2.5974840213992560e+04 8.7015136598126130e-15 1.0522822696870964e+04 1.7508035881995831e+04 1.1252640764483131e+05 -999 2.89416172e-01 1.804826506e-01 -1.21616417e-01
 81 4 430284 1.2727701682958699e+04 1.8755566557495680e+04 8.0340379226402641e-15 9.5784997370191613e+03 1.3574934713928516e+04 1.9938510460519753e+05 -999 2.88844146e-01 1.549305513e-01 -1.25507927e-01
 82 4 430284 1.1084852143822891e+04 1.8383369321959359e+04 7.1727608991566139e-15 8.7574538900073567e+03 1.1910080070595615e+04 2.0461059326812913e+05 -999 2.85627584e-01 1.350381488e-01 -1.28379026e-01
 83 4 430284 1.0631984903244849e+04 2.7412243985441870e+04 6.5851213868148745e-15 8.2248561438531960e+03 1.2707410964513130e+04 1.3146745088660932e+05 -999 2.84278404e-01 1.311106515e-01 -1.28643924e-01
 84 4 430284 1.0462420182803815e+04 2.8490165194478417e+04 6.3800054855294276e-15 7.9530063333769776e+03 1.3115625969373579e+04 7.5611357557138123e+04 -999 2.83737197e-01 1.296927760e-01 -1.28695828e-01
 85 4 430284 1.0341234487730606e+04 2.7979063112164924e+04 6.2846693200361785e-15 7.7859972108709544e+03 1.3131102241900880e+04 3.8264891409767573e+04 -999 2.83327876e-01 1.286408389e-01 -1.28723822e-01
 86 4 430284 9.0075583840618019e+03 1.8342700864790826e+04 6.1006080528260933e-15 6.3091050472844372e+03 9.6308669519634550e+03 1.4117741059586799e+05 -999 2.79609432e-01 1.196995813e-01 -1.28623758e-01
 87 4 430284 8.1400938026596159e+03 1.5448266538619404e+04 5.7411075472946200e-15 5.4994952683898655e+03 8.3274227302993131e+03 7.4667085978992734e+04 -999 2.77481261e-01 1.135605502e-01 -1.28312808e-01
 88 4 430284 7.6063448408343538e+03 1.3676162927688016e+04 5.4774023728413592e-15 4.9506276023428818e+03 7.6150795298369085e+03 4.0617017901737927e+04 -999 2.76750276e-01 1.089402253e-01 -1.28073961e-01
 89 4 430284 7.3073717237337059e+03 1.2851293108990050e+04 5.2259202322671920e-15 4.7394523197424787e+03 7.2721525106899762e+03 1.5778332717972738e+04 -999 2.76988244e-01 1.067496916e-01 -1.28035695e-01
 90 4 430284 7.3937389151639663e+03 1.2072148977000661e+04 5.1850544692943601e-15 4.5935262629451327e+03 7.3151941004958389e+03 1.4734649891396533e+04 -999 2.77615213e-01 1.045468595e-01 -1.28075989e-01
 91 4 430284 5.8624313348217911e+03 9.4860436601186939e+03 1.9950093936633943e-13 3.8796074767694136e+03 5.7248767747714446e+03 4.8057391492548988e+04 -999 2.85143002e-01 9.815459890e-02 -1.29789456e-01
 92 4 430284 5.4560586477390534e+03 8.3758106884116296e+03 3.1994423395389632e-13 3.7574750462593311e+03 5.2971134752668504e+03 7.3912576435814481e+04 -999 3.04902624e-01 8.778828377e-02 -1.34660569e-01
 93 4 430284 5.7103681930823304e+03 9.5599123674628954e+03 1.5795488891088156e-13 3.4758873546228679e+03 5.6244654639259807e+03 6.0058514433349839e+04 -999 3.29575036e-01 8.164580972e-02 -1.42081075e-01
 94 4 430284 5.8064978803590157e+03 9.0405047183927600e+03 1.1778813066817576e-13 3.1429271334621085e+03 6.0008886192614818e+03 5.0309802541962308e+04 -999 3.48779659e-01 7.856321345e-02 -1.48426548e-01
 95 4 430284 5.2277689930308543e+03 7.7550872958746768e+03 1.6430745174303485e-13 2.6387923232607545e+03 5.5475589016767690e+03 2.3754348424118212e+04 -999 3.63984556e-01 7.670688201e-02 -1.53559553e-01
 96 4 430284 3.3650089420664513e+03 4.6235611206613721e+03 4.9841902127787006e-13 2.1966204762943644e+03 3.4610561232966538e+03 3.6905076776273294e+04 -999 3.94123084e-01 7.371384165e-02 -1.63476245e-01
 97 4 430284 2.9398488973604904e+03 3.5741827536980231e+03 7.4812185827779198e-13 1.7958803283966756e+03 2.8973053842486133e+03 5.8734515573310251e+04 -999 4.31012618e-01 7.024142054e-02 -1.74690409e-01
 98 4 430284 2.8106052876759886e+03 3.5421114286985635e+03 7.5270248330843374e-13 1.5341150745853145e+03 2.6802072218630965e+03 8.0737332287046913e+04 -999 4.69901724e-01 6.704564845e-02 -1.84844265e-01
 99 4 430284 2.8482268750560374e+03 3.6024799380486502e+03 7.2652250074164643e-13 1.3481353278622410e+03 2.7126906715490181e+03 9.5088336602342577e+04 -999 5.11676063e-01 6.438430044e-02 -1.93580726e-01
 100 4 430284 3.1279747132932148e+03 3.7773551383360254e+03 8.3046057813456479e-13 1.1717722716608300e+03 3.0207278593786436e+03 8.8178441383958343e+04 -999 5.55341244e-01 6.244999301e-02 -2.00370205e-01
 101 4 430284 2.7321569482950954e+03 3.0313547544725193e+03 2.0501420310573773e-12 1.0534004890505764e+03 2.6471684982457355e+03 4.3662064308107176e+04 -999 5.90314477e-01 6.178463250e-02 -2.04357966e-01
 102 4 430284 2.6812050092841323e+03 2.6717272373308479e+03 3.1797960323286308e-12 8.6444661866822696e+02 2.6089005172105249e+03 2.9143108227327772e+04 -999 6.27644402e-01 6.154487004e-02 -2.07086215e-01
 103 4 430284 2.5916382367843003e+03 2.5222350918392885e+03 2.6722555984942098e-12 7.5863088365949170e+02 2.5151364795771174e+03 1.3996450936343248e+04 -999 6.45674222e-01 6.171654780e-02 -2.07686784e-01
 104 4 430284 2.5658999029863367e+03 2.2894810314810393e+03 1.9832716041821634e-12 6.4960382780832356e+02 2.4906575728961006e+03 1.5818947602139364e+04 -999 6.73540767e-01 6.220829443e-02 -2.08084404e-01
 105 4 430284 2.5290841526253498e+03 2.1885751912752426e+03 1.7954403464885386e-12 5.9967417714756061e+02 2.4542643512814284e+03 1.1368762055859901e+04 -999 6.89454508e-01 6.270047021e-02 -2.07856667e-01
 106 4 430284 2.3253943135822174e+03 2.0584904958334309e+03 1.5799048691441608e-12 5.9986554302603543e+02 2.2470793564554424e+03 1.0856237169326250e+04 -999 7.16034403e-01 6.394729380e-02 -2.07324637e-01
 107 4 430284 2.2128786192718285e+03 1.9074074720483372e+03 1.5593038853449114e-12 5.9791072629858434e+02 2.1513220709047446e+03 1.0375480893885271e+04 -999 7.52138965e-01 6.573628886e-02 -2.05382165e-01
 108 4 430284 2.0726379170484574e+03 1.8023037096327225e+03 1.5221643161637026e-12 5.2724912686644359e+02 2.0066217575940452e+03 8.5326160549673477e+03 -999 7.72721437e-01 6.687295278e-02 -2.03517231e-01
 109 4 430284 1.9612160339528730e+03 1.7098733633422805e+03 1.6531329991688533e-12 4.7496161526522224e+02 1.8934669734007809e+03 8.1893805774193170e+03 -999 7.93335277e-01 6.799428735e-02 -2.01232884e-01
 110 4 430284 1.8560384691552504e+03 1.6275629291461398e+03 1.6660460092896340e-12 4.1994950355611792e+02 1.7814320077494810e+03 7.9758084204757279e+03 -999 8.16214360e-01 6.918738593e-02 -1.98342902e-01
 111 4 430284 1.7309018905665394e+03 1.5515281413396538e+03 1.3930008523922882e-12 4.1939998403692994e+02 1.6535198214763379e+03 7.3652718372356385e+03 -999 8.27257456e-01 6.959459922e-02 -1.96514296e-01
 112 4 430284 1.6095149679652361e+03 1.4761281734248141e+03 1.3172869454357232e-12 4.1829188876614643e+02 1.5279819184871401e+03 7.6297270694487015e+03 -999 8.40143440e-01 6.990244676e-02 -1.94350386e-01
 113 4 430284 1.4914250281015577e+03 1.3980858259097176e+03 1.3696348543788733e-12 3.9932103570809500e+02 1.4021421878974672e+03 7.9574042902605770e+03 -999 8.55141969e-01 6.997830396e-02 -1.91908078e-01
 114 4 430284 1.4057811183406841e+03 1.3297543095529597e+03 1.3842550961424751e-12 3.7748572520811649e+02 1.3061521730414745e+03 8.0937929226123015e+03 -999 8.68480484e-01 6.968510004e-02 -1.89948843e-01
 115 4 430284 1.3603156160898600e+03 1.2965135403032759e+03 1.4260029147985694e-12 3.6515959472594267e+02 1.2563569661613906e+03 7.4388254191969099e+03 -999 8.74826496e-01 6.936400102e-02 -1.89142588e-01
 116 4 430284 1.2871467475949071e+03 1.2451430183148068e+03 1.1314356898723643e-12 3.4585581063449473e+02 1.1757301308657920e+03 8.0119796126842821e+03 -999 8.85844086e-01 6.865132260e-02 -1.88038275e-01
 117 4 430284 1.2330045496224266e+03 1.2006650229983275e+03 1.2453481656908039e-12 3.3483819957942939e+02 1.1135114649305426e+03 7.9801260534813382e+03 -999 8.96791459e-01 6.772900807e-02 -1.87255965e-01
 118 4 430284 1.1865713383910629e+03 1.1559374190064800e+03 1.4049863838725787e-12 3.2590409641483654e+02 1.0603464350195848e+03 8.0093805741411661e+03 -999 9.09656993e-01 6.641091428e-02 -1.86582138e-01
 119 4 430284 1.1511849621470997e+03 1.1380451352867603e+03 1.4742609704461066e-12 3.2488432304609478e+02 1.0219627306539010e+03 7.7278553393197062e+03 -999 9.18774804e-01 6.531918477e-02 -1.86259495e-01
 120 4 430284 1.1260597312757357e+03 1.1330326415263528e+03 1.5051746261887128e-12 3.2349516927415146e+02 9.9322121559285824e+02 7.6247036708185242e+03 -999 9.27020960e-01 6.427450233e-02 -1.86031985e-01
 121 4 430284 1.1007118863740120e+03 1.1295228018495154e+03 1.2361782840434878e-12 3.2600987670699283e+02 9.6539681372888606e+02 7.6416048210878998e+03 -999 9.34068380e-01 6.337301062e-02 -1.85926088e-01
 122 4 430284 1.0829253070434145e+03 1.1183228412368896e+03 1.2603677163705375e-12 3.2750026214366545e+02 9.4513016910943679e+02 7.7603306042763952e+03 -999 9.42602809e-01 6.229903328e-02 -1.85839441e-01
 123 4 430284 1.0659515173540563e+03 1.1079861854516480e+03 1.3852658131643551e-12 3.2508651159788002e+02 9.2830881243198633e+02 7.9349879784543564e+03 -999 9.51407176e-01 6.126257613e-02 -1.85844108e-01
 124 4 430284 1.0712204080962354e+03 1.1148466812319964e+03 1.4776413300902384e-12 3.2545672293140433e+02 9.3196751843573645e+02 8.2711956775159397e+03 -999 9.60808240e-01 6.017174411e-02 -1.85772841e-01
 125 4 430284 1.0753925038128214e+03 1.1101750110252194e+03 1.5036808827226208e-12 3.2427980546399056e+02 9.3430742734705825e+02 8.5893763732120606e+03 -999 9.66085708e-01 5.961568457e-02 -1.85746500e-01
 126 4 430284 1.0499030056631996e+03 1.1044161701773080e+03 1.2149183518449146e-12 3.2212183119397633e+02 9.1146544191486555e+02 9.1010519930010214e+03 -999 9.71328619e-01 5.905386979e-02 -1.85634661e-01
 127 4 430284 1.0360435451672661e+03 1.0906347014320224e+03 1.1324718902566802e-12 3.2213314653461708e+02 9.0038172976782641e+02 9.6121732878262628e+03 -999 9.78224284e-01 5.837858066e-02 -1.85499872e-01
 128 4 430284 1.0427117423981199e+03 1.0704567508361779e+03 1.2197889669532460e-12 3.2124523065405236e+02 9.0820490279936087e+02 1.0031723491622470e+04 -999 9.86440410e-01 5.765471284e-02 -1.85314691e-01
 129 4 430284 1.0589174372622365e+03 1.0590712922970404e+03 1.2738033760583788e-12 3.1963823176462699e+02 9.2521199422417442e+02 1.0509716959885931e+04 -999 9.92287515e-01 5.720046939e-02 -1.85138217e-01
 130 4 430284 1.0660914702868606e+03 1.0609171487546312e+03 1.2981321902480704e-12 3.1855860385320653e+02 9.3634459349679696e+02 1.0971746077005095e+04 -999 9.96866693e-01 5.688099299e-02 -1.84976864e-01
 131 4 430284 1.0365000791581667e+03 1.0548807191930898e+03 1.0586716167838122e-12 3.1628340022070921e+02 9.0877297000746978e+02 1.1532954751560754e+04 -999 1.00117615e+00 5.658414084e-02 -1.84747666e-01
 132 4 430284 1.0353226234538379e+03 1.0440182613576926e+03 9.7387731212561449e-13 3.1531968299847028e+02 9.0726968487086287e+02 1.2047495870830733e+04 -999 1.00650995e+00 5.625769024e-02 -1.84458626e-01
 133 4 430284 1.0476119148747694e+03 1.0272214652639768e+03 1.0076347229321643e-12 3.1338547546162653e+02 9.2171402522770927e+02 1.2560265851642887e+04 -999 1.01195005e+00 5.597603811e-02 -1.84162421e-01
 134 4 430284 1.0654096777353493e+03 1.0300456290087179e+03 1.0581820470111273e-12 3.1180376979010396e+02 9.4164137266967759e+02 1.3020359381384327e+04 -999 1.01720336e+00 5.573520459e-02 -1.83830669e-01
 135 4 430284 1.0882139798325106e+03 1.0473137526510907e+03 1.0809603999942947e-12 3.1216764904453657e+02 9.6242152321518142e+02 1.3291792814790997e+04 -999 1.02062939e+00 5.558470903e-02 -1.83554088e-01
 136 4 430284 1.0569014030646717e+03 1.0305887797270525e+03 9.1885123985935354e-13 3.1338290882635715e+02 9.3249360590442211e+02 1.3715192125973339e+04 -999 1.02306513e+00 5.546195389e-02 -1.83282155e-01
 137 4 430284 1.0399314672385071e+03 1.0165363950326724e+03 8.1598231694931459e-13 3.1750209094058704e+02 9.1659224061863165e+02 1.4253624464188677e+04 -999 1.02617184e+00 5.532093332e-02 -1.82934374e-01
 138 4 430284 1.0383091576833599e+03 1.0047591271095381e+03 8.0290768686081328e-13 3.2153034159293668e+02 9.1557995199470452e+02 1.4855869418191594e+04 -999 1.02997532e+00 5.517030713e-02 -1.82510331e-01
 139 4 430284 1.0618497037068703e+03 1.0021175881246116e+03 8.3848901429450415e-13 3.2301558386190521e+02 9.3631601518240780e+02 1.5382234378432162e+04 -999 1.03370309e+00 5.503774895e-02 -1.82082267e-01
 140 4 430284 1.0741458060469961e+03 1.0036915662651716e+03 8.6126673281261179e-13 3.2429516577644040e+02 9.4931178380479105e+02 1.5767650635967348e+04 -999 1.03604615e+00 5.495047105e-02 -1.81786259e-01
 141 4 430284 1.0469173069721417e+03 1.0040607537820880e+03 7.4635407788813178e-13 3.2795450823525459e+02 9.2352222843184813e+02 1.5919545199029106e+04 -999 1.03758457e+00 5.486554860e-02 -1.81512555e-01