TITLE = "005.02 ALPHA 3.40 GRIDLEVEL 1"

VARIABLES = "ITERATION"  "GRID_LEVEL"  "GRID_SIZE"  "CONTINUITY"  "MOMENTUMX"  "MOMENTUMY"  "MOMENTUMZ"  "ENERGY"  "TURB1"  "TURB2"  "CL_TOT"  "CD_TOT"  "CM_TOT"

DATASETAUXDATA ParticipantID   = "005"
DATASETAUXDATA SubmissionDate  = "10-31-2024"
DATASETAUXDATA Name            = "Jeffrey A. Housman"
DATASETAUXDATA Email           = "jeffrey.a.housman@nasa.gov"
DATASETAUXDATA Institution     = "NASA Ames Research Center"
DATASETAUXDATA SolverName      = "LAVA Curvilinear"
DATASETAUXDATA BasicAlgorithm  = "RANS"
DATASETAUXDATA TurbulenceModel = "SA-RC-comp-neg"
DATASETAUXDATA GridId          = "Multiblock"
DATASETAUXDATA Discretization  = "Finite difference"
DATASETAUXDATA Order           = "2"
DATASETAUXDATA DistanceCalc    = "Exact"
DATASETAUXDATA Notes           = " "

ZONE T = "005.02 - Alpha 3.40 - Grid Level 1"
AUXDATA Tstatic         = "271.0"
AUXDATA Deltat          = "-999"
AUXDATA GridFileName    = "ONERA-OAT15A_230mmChord_780mmSpan_upZ_2024_06_25-Structured_23mm_Level-1.x"
AUXDATA Misc            = " "
 0 1 52831 9.6995572959457670e+04 1.6493647124960012e+05 2.0240672186817967e-14 8.2458534376823911e+04 9.7802813406773435e+04 1.9771464787801768e+05 -999 5.87517067e-03 3.095022207e-01 -3.93056651e-03
 1 1 52831 1.2682672573197952e+05 1.3604481902573630e+05 1.8621914522154685e-14 7.0253141258240736e+04 1.2306987309488008e+05 1.2609455643504174e+05 -999 4.93112588e-02 3.189918001e-01 -2.17475590e-02
 2 1 52831 1.4953710806320526e+05 1.2289671895829827e+05 1.7443409576654833e-14 7.6211090696043102e+04 1.4314158717441146e+05 8.0401100940195509e+04 -999 9.54241528e-02 3.359276333e-01 -4.01015877e-02
 3 1 52831 1.7368833957134461e+05 1.1279294477089941e+05 1.6537469681498728e-14 8.5154887131084848e+04 1.6570256201075099e+05 5.0401790552095037e+04 -999 1.34020065e-01 3.549229621e-01 -5.64569090e-02
 4 1 52831 1.9862640678178423e+05 1.0311201225381195e+05 1.5872742239153632e-14 9.5414221466210380e+04 1.9110141555615683e+05 2.2913666806256959e+04 -999 1.66002354e-01 3.750688581e-01 -6.87262083e-02
 5 1 52831 2.1919188171597826e+05 1.0068486737761578e+05 1.5449492411129312e-14 1.0767956072216471e+05 2.1386030058121320e+05 1.8061690417948903e+04 -999 1.92651163e-01 3.953275767e-01 -7.83542592e-02
 6 1 52831 1.9604443057139459e+05 1.2265224024940869e+05 1.5130365549980240e-14 1.1222530779939541e+05 1.9256665825232497e+05 1.4907050339440140e+04 -999 2.11782163e-01 4.088630455e-01 -8.56939902e-02
 7 1 52831 1.8267561359602335e+05 1.3514067946042339e+05 1.4878335094234697e-14 1.1112879177713572e+05 1.7707973747607280e+05 1.2587632787998597e+04 -999 2.26442771e-01 4.174182649e-01 -9.17063909e-02
 8 1 52831 1.9888920283783085e+05 1.3206588282011839e+05 1.4720143808245558e-14 1.0628405643126721e+05 1.9967616299456870e+05 1.0724077556438500e+04 -999 2.37364522e-01 4.187474130e-01 -9.63228022e-02
 9 1 52831 1.9370095796841700e+05 1.1565382028007435e+05 1.4601834570647114e-14 1.0093280679988507e+05 1.9565884075628489e+05 9.3912565092489313e+03 -999 2.46967228e-01 4.159760148e-01 -1.00075443e-01
 10 1 52831 2.0898353593519921e+05 1.1791968538621033e+05 1.4529916162140809e-14 9.9048191257260012e+04 2.1590694217316332e+05 8.3350494657876279e+03 -999 2.55130083e-01 4.131449512e-01 -1.03057890e-01
 11 1 52831 1.6723657274490935e+05 1.0289942037551256e+05 1.4427264121261942e-14 8.7978019314579855e+04 1.7320053068380227e+05 7.1897470816728401e+03 -999 2.63582875e-01 4.100356834e-01 -1.06097567e-01
 12 1 52831 1.4939375898595818e+05 9.2025247404059730e+04 1.4348767288619241e-14 8.1574634147521356e+04 1.5027378052760303e+05 6.3133825378290394e+03 -999 2.71419782e-01 4.074384272e-01 -1.08811612e-01
 13 1 52831 1.3407214986068939e+05 8.2266110222654112e+04 1.4276766778332217e-14 7.4439387651819648e+04 1.3383848723699542e+05 5.6612784786552465e+03 -999 2.77292635e-01 4.054313687e-01 -1.10849331e-01
 14 1 52831 1.5013442352715912e+05 8.3621342446313312e+04 1.4231584855877544e-14 7.3216490359206160e+04 1.5466793989163075e+05 5.1454708492888249e+03 -999 2.81856993e-01 4.035795499e-01 -1.12506951e-01
 15 1 52831 1.2994346953907274e+05 6.8933703520748779e+04 1.4204996018441460e-14 6.6169163698965160e+04 1.3327274735006961e+05 4.7017195468600821e+03 -999 2.84515256e-01 4.020819716e-01 -1.13555653e-01
 16 1 52831 1.1668445146373776e+05 6.8575325972280407e+04 1.4141865237960077e-14 6.1896874631871382e+04 1.1967679932454212e+05 4.1681426099490318e+03 -999 2.86868946e-01 4.002002885e-01 -1.14556484e-01
 17 1 52831 1.0137347071781554e+05 6.6382461622470131e+04 1.4062683994078659e-14 5.5919889555462898e+04 1.0397286070528570e+05 3.7353903196984502e+03 -999 2.89221108e-01 3.979439475e-01 -1.15592071e-01
 18 1 52831 9.6957920464506096e+04 6.0715707348472060e+04 1.3984863999500301e-14 5.0967692959931803e+04 9.8330512926679774e+04 3.3838013481163453e+03 -999 2.91770164e-01 3.950625030e-01 -1.16734805e-01
 19 1 52831 8.8028675456280733e+04 5.4549797906967047e+04 1.3935218244038139e-14 4.6743356793310581e+04 8.9416567342842973e+04 3.0908519436974475e+03 -999 2.93492174e-01 3.927603800e-01 -1.17496861e-01
 20 1 52831 9.8430071870344211e+04 5.8233505571727248e+04 1.3883108488316044e-14 4.6177053411469184e+04 1.0268928471939209e+05 2.8403955670983023e+03 -999 2.95123860e-01 3.903320687e-01 -1.18194408e-01
 21 1 52831 7.9672071984016744e+04 5.3702238803815744e+04 1.3775330663697153e-14 4.0856687897893484e+04 8.4703276538981736e+04 2.5372267773950057e+03 -999 2.96438746e-01 3.877888257e-01 -1.18721815e-01
 22 1 52831 6.3742030169414153e+04 4.6674907416346548e+04 1.3642903240516202e-14 3.5752022469274620e+04 6.6641073064647411e+04 2.2898723660104774e+03 -999 2.97787523e-01 3.848797228e-01 -1.19240866e-01
 23 1 52831 5.6875029267222271e+04 4.2757896337126389e+04 1.3480348465985902e-14 3.1690836709343694e+04 5.7623138033062700e+04 2.0813706439444795e+03 -999 2.99213081e-01 3.813866929e-01 -1.19768376e-01
 24 1 52831 5.4921666875224320e+04 4.0343526798626270e+04 1.3348920059676076e-14 2.9177999269820131e+04 5.6574717810561233e+04 1.9033847780008007e+03 -999 3.00161648e-01 3.786646407e-01 -1.20111096e-01
 25 1 52831 5.9871504492899992e+04 4.1804563250060099e+04 1.3223170395019687e-14 2.8264941083120615e+04 6.3099492531972683e+04 1.7497786124683566e+03 -999 3.00970933e-01 3.760644586e-01 -1.20405162e-01
 26 1 52831 4.8629690645801413e+04 3.8210018506586224e+04 1.3074785362978361e-14 2.5049769224463358e+04 5.2488359930353196e+04 1.5412373121538230e+03 -999 3.01566953e-01 3.734743279e-01 -1.20616285e-01
 27 1 52831 3.6830935824255081e+04 3.3932016175978199e+04 1.2883250196830361e-14 2.1515316993792218e+04 3.9545488567495035e+04 1.3686646040874200e+03 -999 3.02244103e-01 3.703239854e-01 -1.20855964e-01
 28 1 52831 2.9570732758268023e+04 3.0735532231460926e+04 1.2665417976625772e-14 1.8507267182102260e+04 3.0356976869733633e+04 1.2269858405616653e+03 -999 3.02927451e-01 3.668685745e-01 -1.21097760e-01
 29 1 52831 2.9163762445919481e+04 2.9507444177359390e+04 1.2467397588941432e-14 1.6838940035042793e+04 3.0151416254410240e+04 1.1100817884891380e+03 -999 3.03491681e-01 3.637679670e-01 -1.21299833e-01
 30 1 52831 3.0533798704184850e+04 2.9143900179609511e+04 1.2280226816466407e-14 1.5905409942105369e+04 3.2235480708147123e+04 1.0131092886269337e+03 -999 3.03983310e-01 3.608697612e-01 -1.21480204e-01
 31 1 52831 2.5524961081992085e+04 2.7203181888865962e+04 1.2094168754979546e-14 1.4507174174705557e+04 2.7618911064556425e+04 8.7246063751122279e+02 -999 3.04307291e-01 3.582459983e-01 -1.21592899e-01
 32 1 52831 1.9728398117691126e+04 2.5106167837697096e+04 1.1854814562642363e-14 1.2901315521208664e+04 2.1500033769685680e+04 7.5730219828961538e+02 -999 3.04692178e-01 3.550116850e-01 -1.21726448e-01
 33 1 52831 1.5253744676194490e+04 2.3186299284024433e+04 1.1571293647511605e-14 1.1344037586343997e+04 1.6030804082433964e+04 6.6618857054528735e+02 -999 3.05122796e-01 3.511969806e-01 -1.21876105e-01
 34 1 52831 1.3690809486639442e+04 2.2020037328385100e+04 1.1300106018110978e-14 1.0269311029289576e+04 1.4056581053110103e+04 5.9253933981680143e+02 -999 3.05521601e-01 3.474008302e-01 -1.22017349e-01
 35 1 52831 1.3189261030683152e+04 2.1203899725321346e+04 1.1051773227213138e-14 9.5571957569810584e+03 1.3719136508636024e+04 5.3225823910171903e+02 -999 3.05855144e-01 3.439594925e-01 -1.22140149e-01
 36 1 52831 1.1530749691440375e+04 2.0126222818889983e+04 1.0804255816986937e-14 8.8718567139064871e+03 1.2062517000904809e+04 4.5386728091350716e+02 -999 3.06059194e-01 3.405607283e-01 -1.22191940e-01
 37 1 52831 9.7172118459534577e+03 1.8966860291860623e+04 1.0491419822243263e-14 8.0858546427689244e+03 1.0135949588124704e+04 3.9353973490358942e+02 -999 3.06298084e-01 3.362676119e-01 -1.22245062e-01
 38 1 52831 8.2792239453862185e+03 1.7783771711059282e+04 1.0095025427944284e-14 7.2677798076484751e+03 8.5364874345417393e+03 3.4423801720146355e+02 -999 3.06563026e-01 3.309966263e-01 -1.22293003e-01
 39 1 52831 7.5294895411154966e+03 1.6788839871010714e+04 9.7107858354026552e-15 6.5929753178591400e+03 7.7762094527854297e+03 3.0954217620327415e+02 -999 3.06804425e-01 3.255121920e-01 -1.22324349e-01
 40 1 52831 7.1279952232260075e+03 1.5977258656323171e+04 9.3566783373716881e-15 6.0736532823390480e+03 7.4778061864936462e+03 2.8464096835323488e+02 -999 3.07006048e-01 3.202390413e-01 -1.22339933e-01
 41 1 52831 6.4859567597298956e+03 1.5049033633696656e+04 8.9363524469415497e-15 5.5641779927028747e+03 6.9496763497026895e+03 2.6396675444217442e+02 -999 3.07123055e-01 3.137142733e-01 -1.22235499e-01
 42 1 52831 5.9612693322631740e+03 1.4009021314563486e+04 8.4258781144311160e-15 5.0619391563133304e+03 6.5724432785832059e+03 2.7065530097119114e+02 -999 3.07294063e-01 3.051784088e-01 -1.22081990e-01
 43 1 52831 5.7245005168995149e+03 1.3016392035726276e+04 7.8474536384219408e-15 4.7000554079564254e+03 6.4916065828625169e+03 2.8644079959305219e+02 -999 3.07549080e-01 2.952735513e-01 -1.21902782e-01
 44 1 52831 5.6774519354756221e+03 1.2270574798323709e+04 7.3912123643391073e-15 4.4525220352287988e+03 6.5636925230889401e+03 2.8384084291669484e+02 -999 3.07959450e-01 2.861477542e-01 -1.21745828e-01
 45 1 52831 5.7451955499711776e+03 1.1609222280423806e+04 6.9822221009193406e-15 4.3740788752408234e+03 6.7115653749972125e+03 2.8654139073822432e+02 -999 3.08534559e-01 2.765269742e-01 -1.21643317e-01
 46 1 52831 5.7409641805774172e+03 1.0803789064600778e+04 6.4866228990629918e-15 4.3335223209182359e+03 6.7217001289821537e+03 3.0997829592039812e+02 -999 3.09491828e-01 2.636186891e-01 -1.21625809e-01
 47 1 52831 5.8060134913077618e+03 9.8338461299309001e+03 5.9359540993448074e-15 4.4097422232166791e+03 6.7316416350464506e+03 3.3467774046067001e+02 -999 3.11191390e-01 2.448893118e-01 -1.21943122e-01
 48 1 52831 5.8508944519925399e+03 9.0028768966206535e+03 5.4023901531646573e-15 4.4807011274046754e+03 6.6648185913338912e+03 3.6016806884727015e+02 -999 3.13214723e-01 2.235598033e-01 -1.22988034e-01
 49 1 52831 5.7423593690846628e+03 8.5112601016629233e+03 5.0015743398604006e-15 4.4012841714676761e+03 6.4326286533544690e+03 4.5047583355039120e+02 -999 3.14551201e-01 2.028398899e-01 -1.24858806e-01
 50 1 52831 5.4543414258343128e+03 8.4543408846029561e+03 4.6349612277472212e-15 4.2286919814034618e+03 6.0194654723122858e+03 8.9550364614228738e+02 -999 3.14369738e-01 1.835640748e-01 -1.27316009e-01
 51 1 52831 4.6956978426205123e+03 7.6461033785965010e+03 4.1270211549854151e-15 3.9610340458934465e+03 4.9998397012269761e+03 2.1776203681320826e+03 -999 3.10287237e-01 1.580238398e-01 -1.30738152e-01
 52 1 52831 4.1318293363496341e+03 7.2092032135752934e+03 3.6759265486049985e-15 3.7476624630024562e+03 4.2715127864882406e+03 3.4828317563095970e+03 -999 3.01526710e-01 1.383336481e-01 -1.32224793e-01
 53 1 52831 3.7274730954848137e+03 7.3134550105549570e+03 3.2667818448490182e-15 3.2555401190515272e+03 3.7654560568781394e+03 5.9753464676759522e+03 -999 2.90377353e-01 1.233873992e-01 -1.31124015e-01
 54 1 52831 3.6087988356365572e+03 7.8361296906105235e+03 2.9958223473569186e-15 2.7064084696307295e+03 3.4935136262537490e+03 7.6488125667077857e+03 -999 2.84629991e-01 1.169273842e-01 -1.29414882e-01
 55 1 52831 3.6092570444589878e+03 8.2866579353624875e+03 2.8666536872930205e-15 2.4521490786756935e+03 3.3555166089382456e+03 8.6875488551316721e+03 -999 2.82059176e-01 1.133736583e-01 -1.28272242e-01
 56 1 52831 2.8126335911857100e+03 7.2969916334282116e+03 2.6999818488792328e-15 2.1552382936605754e+03 2.7174869830999714e+03 8.7325835924431631e+03 -999 2.78513949e-01 1.061156788e-01 -1.25567963e-01
 57 1 52831 2.2773022825416738e+03 5.8255124498974010e+03 2.7015304481858426e-15 2.0187291019781628e+03 2.2634949898347677e+03 6.6091936281714698e+03 -999 2.81219747e-01 9.890615549e-02 -1.23392955e-01
 58 1 52831 2.1216979240170804e+03 4.4391183028911364e+03 2.7163701483920490e-15 2.2450574439368288e+03 2.0391509763462386e+03 4.7015399863818302e+03 -999 2.92726893e-01 9.370127424e-02 -1.23898231e-01
 59 1 52831 2.1512190078136018e+03 3.8220292932268617e+03 2.6444470144342695e-15 2.2046999936587522e+03 2.0717357571412431e+03 3.8039262923992928e+03 -999 3.05462613e-01 9.055193237e-02 -1.26210699e-01
 60 1 52831 2.3456376172180730e+03 3.6047119546578574e+03 2.5748780229217780e-15 2.0289245582879926e+03 2.2285278593860853e+03 3.3738499062062174e+03 -999 3.16524111e-01 8.823521719e-02 -1.28842186e-01
 61 1 52831 1.9982376321284353e+03 2.9244415167580460e+03 2.5635526354731469e-15 1.5936393778291297e+03 1.9513668542844061e+03 3.5479772601992199e+03 -999 3.44693120e-01 8.395678248e-02 -1.37635190e-01
 62 1 52831 1.7845913991330294e+03 2.3878778119804310e+03 2.6280942183976627e-15 1.3245368745472358e+03 1.7794563096190320e+03 3.7630009261720929e+03 -999 3.79831636e-01 7.925534143e-02 -1.50059626e-01
 63 1 52831 1.5859026281115766e+03 1.9290331694981130e+03 2.5773410979565864e-15 1.1636719253326994e+03 1.5653301867881398e+03 3.9509843485064407e+03 -999 4.11842288e-01 7.576194976e-02 -1.62011141e-01
 64 1 52831 1.4762591497378633e+03 1.8734947176317687e+03 2.5588920631502932e-15 1.0202920629274475e+03 1.4432654121126391e+03 4.8388449791987541e+03 -999 4.44417245e-01 7.271858822e-02 -1.73213753e-01
 65 1 52831 1.4142726877807420e+03 1.8822172459988037e+03 2.5705558355805926e-15 8.6387625741657132e+02 1.3554438367856180e+03 5.0614391835101960e+03 -999 4.78280096e-01 6.988492578e-02 -1.83018507e-01
 66 1 52831 1.0313466732239469e+03 1.4234686708621721e+03 2.5093324215868198e-15 5.1784419101102242e+02 9.9054855669753772e+02 6.8540436901128769e+03 -999 5.43628739e-01 6.693666120e-02 -1.96130152e-01
 67 1 52831 9.3526018745013232e+02 1.1514263492890000e+03 2.5080152281750714e-15 3.8296452030097703e+02 8.9033327220540059e+02 6.0388113512094978e+03 -999 6.13143068e-01 6.603323790e-02 -2.04789938e-01
 68 1 52831 9.9552239003233365e+02 1.0084296464182312e+03 2.5333423030543379e-15 3.0314396648634050e+02 9.8791056564477640e+02 4.7027725552997454e+03 -999 6.80118121e-01 6.720776259e-02 -2.08284563e-01
 69 1 52831 1.1757271126241531e+03 9.3349520406444913e+02 2.8034452375929297e-15 2.4625910357734793e+02 1.1771110764822815e+03 3.5801411249238108e+03 -999 7.32111238e-01 6.946139453e-02 -2.07469047e-01
 70 1 52831 1.1874658948445253e+03 8.9335616004832161e+02 3.1423382615453249e-15 2.1132041966877418e+02 1.1907568519879073e+03 2.9478610914826950e+03 -999 7.61406016e-01 7.119478573e-02 -2.05503726e-01
 71 1 52831 6.5028127587676761e+02 6.9144989336607864e+02 1.6960763707085037e-14 1.8687252141502537e+02 6.2864328460343290e+02 2.5411077821481681e+03 -999 8.35188433e-01 7.470348069e-02 -1.99702832e-01
 72 1 52831 4.9918828900103023e+02 5.7535802906683534e+02 7.9810459641568384e-14 1.5610146365440056e+02 4.6831037673404012e+02 2.5640998290785324e+03 -999 8.93144204e-01 7.464666471e-02 -1.93590394e-01
 73 1 52831 4.3230793104043863e+02 4.9510850203264056e+02 1.0417832029722522e-13 1.2942020274738456e+02 3.9552421099994427e+02 2.5738810133907914e+03 -999 9.40535876e-01 7.193977318e-02 -1.89609767e-01
 74 1 52831 3.8882665043523156e+02 4.5282457886979603e+02 9.8343250131148172e-14 1.1815947898428038e+02 3.4927268723390932e+02 2.6204936537854101e+03 -999 9.73124108e-01 6.868630723e-02 -1.87812842e-01
 75 1 52831 3.7087940025664210e+02 4.4054830037790202e+02 9.0801541882071822e-14 1.1406366963844039e+02 3.3270561172124695e+02 2.8652601121553275e+03 -999 9.94814965e-01 6.644592290e-02 -1.86675744e-01
 76 1 52831 3.5280014276097785e+02 6.3050011874568747e+02 3.1500135524921950e-13 1.1985205651562845e+02 3.2125118137916712e+02 6.2302319915660264e+03 -999 1.01457868e+00 6.518236636e-02 -1.85796608e-01
 77 1 52831 3.4601284443854712e+02 8.2207804156006341e+02 1.1882235896288372e-12 1.2410993839475172e+02 3.2143492214814955e+02 3.9517351333404440e+04 -999 1.03186906e+00 6.405350910e-02 -1.84633721e-01
 78 1 52831 3.4818104823806306e+02 6.4370932562169401e+02 3.5806809592812995e-13 1.1623004048960699e+02 3.1795696307859504e+02 3.1482484122087666e+04 -999 1.04651245e+00 6.303776593e-02 -1.83306369e-01
 79 1 52831 3.5868537274635662e+02 7.6960863431793939e+02 2.1567278561650973e-12 1.1051836129201746e+02 3.3094978262491190e+02 2.7519525950970030e+04 -999 1.06047309e+00 6.206414966e-02 -1.81915096e-01
 80 1 52831 3.6875311484077139e+02 8.3280256305465548e+02 1.5255735469675177e-12 1.0880413038431797e+02 3.5686964580896273e+02 2.5124751142705558e+04 -999 1.06669618e+00 6.155049041e-02 -1.81094378e-01
 81 1 52831 3.5754371423006666e+02 7.8113772208520834e+02 1.3795004447737246e-12 1.1383751716189475e+02 3.4342201132802984e+02 1.1237749198833495e+04 -999 1.07433456e+00 6.116090469e-02 -1.80887413e-01
 82 1 52831 3.7188534299783697e+02 7.1447699449182107e+02 1.2108255707063656e-12 1.2612512194784239e+02 3.4926988966272603e+02 7.7380565354311921e+03 -999 1.08358297e+00 6.072467296e-02 -1.80614552e-01
 83 1 52831 4.0880898979068508e+02 6.0668758940799614e+02 1.0118312111500837e-12 1.4295581828519778e+02 3.7603402328670853e+02 7.0896870669262262e+03 -999 1.09475549e+00 6.026807326e-02 -1.80339634e-01
 84 1 52831 4.1401762237726808e+02 5.6302738265413041e+02 1.0634459137657081e-12 1.5335468561118864e+02 3.7829912417087775e+02 7.2851891971392606e+03 -999 1.10075266e+00 5.997943977e-02 -1.80176771e-01
 85 1 52831 4.2162925394613450e+02 5.4117523925543287e+02 1.2854999223577043e-12 1.6658659485035719e+02 3.8592087469363270e+02 7.7124085670552149e+03 -999 1.10508752e+00 5.953202004e-02 -1.79435153e-01
 86 1 52831 3.9836336299830691e+02 4.9673357742599666e+02 1.1187267520528771e-12 1.5422301599509254e+02 3.5866196397383794e+02 6.6478225513600546e+03 -999 1.10773872e+00 5.959913017e-02 -1.79713296e-01
 87 1 52831 3.9622759793751709e+02 4.5040025086998867e+02 9.1184946514199437e-13 1.4180431196230066e+02 3.5338592969789903e+02 6.4228379839561467e+03 -999 1.11083753e+00 5.965570337e-02 -1.79984730e-01
 88 1 52831 4.1408198258301741e+02 4.0353686338979497e+02 6.7856957761994622e-13 1.3192897297591867e+02 3.7310500142876873e+02 6.7212415182150971e+03 -999 1.11445880e+00 5.966139232e-02 -1.80146407e-01
 89 1 52831 4.1878650001423108e+02 3.7755030634132243e+02 5.5543962890926758e-13 1.2594609075311799e+02 3.8042717715439539e+02 6.1336774767819716e+03 -999 1.11706854e+00 5.964757304e-02 -1.80190603e-01
 90 1 52831 4.0992104247719999e+02 3.6422403868402785e+02 4.8250660256224030e-13 1.2311137367260763e+02 3.7229129028191244e+02 6.6731033205557287e+03 -999 1.11937656e+00 5.963858942e-02 -1.80214948e-01
 91 1 52831 3.7626787743495578e+02 3.5616469675339903e+02 4.2636317187961636e-13 1.2222849473022488e+02 3.3649879523651737e+02 6.8468375669452962e+03 -999 1.12129212e+00 5.969488130e-02 -1.80358693e-01
 92 1 52831 3.5548607880535951e+02 3.4407905554647499e+02 3.9829015549983478e-13 1.2028322050178005e+02 3.1447225572925765e+02 6.0065012935143832e+03 -999 1.12361868e+00 5.974626624e-02 -1.80502222e-01
 93 1 52831 3.4353123640158316e+02 3.3017925249974627e+02 3.7460016731347458e-13 1.1477452970078308e+02 3.0288617423844863e+02 5.8762453722271393e+03 -999 1.12687125e+00 5.987687856e-02 -1.80840532e-01
 94 1 52831 3.3052384587944545e+02 3.2247705199956641e+02 3.7085794556173877e-13 1.1124438227397940e+02 2.9007288812601297e+02 7.0404991607182073e+03 -999 1.13023918e+00 6.009877439e-02 -1.81403766e-01
 95 1 52831 3.1340696535751528e+02 3.2057617112327938e+02 3.9564261581570336e-13 1.1011557157927399e+02 2.7255441890997730e+02 5.6447647812317546e+03 -999 1.13316581e+00 6.035633148e-02 -1.82055890e-01
 96 1 52831 2.6975575530377728e+02 3.1938776702824021e+02 3.1789590622143692e-13 1.1329095770647426e+02 2.2932524422669184e+02 6.7404078679086251e+03 -999 1.13676033e+00 6.076679007e-02 -1.83073479e-01
 97 1 52831 2.3780642730685614e+02 3.1810178289557837e+02 4.2435214542793494e-13 1.1522207781657927e+02 1.9877105039244839e+02 9.0499270660450766e+03 -999 1.14156494e+00 6.131239765e-02 -1.84425560e-01
 98 1 52831 2.1075387239756654e+02 3.1522276733619043e+02 6.0821530541774495e-13 1.1614477346134085e+02 1.7458685703070122e+02 8.0064129045153768e+03 -999 1.14657610e+00 6.185093699e-02 -1.85736660e-01
 99 1 52831 1.9604161286988435e+02 3.1925305981856724e+02 7.2191407124351034e-13 1.2287437604115698e+02 1.6174336971034211e+02 8.6857596100528226e+03 -999 1.15057112e+00 6.230734329e-02 -1.86857750e-01
 100 1 52831 1.8938354612021530e+02 3.3552349423145927e+02 7.8349456158319897e-13 1.3807425661730846e+02 1.5585631400795143e+02 1.1296452757154335e+04 -999 1.15128276e+00 6.234878936e-02 -1.86888684e-01
 101 1 52831 1.7126941754914591e+02 2.8024474017835757e+02 3.8671151242026052e-13 9.5777181814766081e+01 1.3641700334227420e+02 8.3278811496056514e+03 -999 1.15147679e+00 6.223419632e-02 -1.86538479e-01
 102 1 52831 1.5644006809516728e+02 2.4613621903061656e+02 2.9688719881613163e-13 7.5028504210672722e+01 1.2414605032149245e+02 9.2530277511025488e+03 -999 1.15154520e+00 6.200299381e-02 -1.85826684e-01
 103 1 52831 1.4262987667930722e+02 2.4217405718216591e+02 3.4502790560543672e-13 7.0244447513366040e+01 1.1329025134383819e+02 1.0458094008004158e+04 -999 1.15162534e+00 6.182464817e-02 -1.85165073e-01
 104 1 52831 1.3398188416123048e+02 2.5191534493571186e+02 3.6290393962812983e-13 7.2236489312847013e+01 1.0450574222126684e+02 1.2723015296198595e+04 -999 1.15341385e+00 6.206064288e-02 -1.85481671e-01
 105 1 52831 1.3468042259154822e+02 2.5920476120216574e+02 3.9026388002449892e-13 7.2808986879557622e+01 1.0821099019527854e+02 1.2290178609935330e+04 -999 1.15615885e+00 6.255464766e-02 -1.86464948e-01
 106 1 52831 1.2581888036595646e+02 2.5272894751553579e+02 2.8282293055016802e-13 7.0687897990755005e+01 9.6028418671935995e+01 1.4751986149345170e+04 -999 1.15843291e+00 6.303552605e-02 -1.87377488e-01
 107 1 52831 1.2486206985582719e+02 2.4955881133628517e+02 2.9853278710171070e-13 6.7160906903898024e+01 9.5932367924023723e+01 1.6858752105879976e+04 -999 1.15992732e+00 6.338812670e-02 -1.88005475e-01
 108 1 52831 1.2819356783382554e+02 2.5141807670593423e+02 2.8109709142649411e-13 7.0709003451588643e+01 1.0245944983336800e+02 2.3128191857321850e+04 -999 1.16024291e+00 6.355654362e-02 -1.88169507e-01
 109 1 52831 1.3310110457900385e+02 2.4013228360525045e+02 2.5640055323617745e-13 6.6194379722276651e+01 1.0627215297578999e+02 2.0751082922149708e+04 -999 1.16003584e+00 6.362018316e-02 -1.88065381e-01
 110 1 52831 1.3962931110243198e+02 2.4165575019140400e+02 2.5959914092593767e-13 7.3446859438610801e+01 1.1374843775091348e+02 2.1156575554670493e+04 -999 1.15935686e+00 6.363064433e-02 -1.87794330e-01
 111 1 52831 1.5004156948152888e+02 2.3633630700499120e+02 2.0107580744024097e-13 8.0941098791205718e+01 1.2628691128782313e+02 1.9371399770139382e+04 -999 1.15840123e+00 6.365578022e-02 -1.87619299e-01
 112 1 52831 1.6117112815497472e+02 2.3843314282706081e+02 2.7944984697929922e-13 1.1356949774264253e+02 1.3515577891573002e+02 2.0909362500235013e+04 -999 1.15597920e+00 6.334531359e-02 -1.86470255e-01
 113 1 52831 1.7185170660861797e+02 2.3457809727211773e+02 3.0706996794213596e-13 1.0198307172646315e+02 1.4543581120786985e+02 2.1753965482678039e+04 -999 1.15315151e+00 6.305458936e-02 -1.85306851e-01
 114 1 52831 1.8398971558043368e+02 2.3951328626396852e+02 3.2631724592124595e-13 8.2264716705861090e+01 1.5685741194534799e+02 2.0905731725515463e+04 -999 1.15018354e+00 6.269684276e-02 -1.84030545e-01
 115 1 52831 1.9250583111719465e+02 2.2874915938627743e+02 3.4611286695731545e-13 7.6798330206412913e+01 1.6371507954619506e+02 2.0649226840047377e+04 -999 1.14775041e+00 6.240042647e-02 -1.82952021e-01
 116 1 52831 1.9528257580298867e+02 2.2531022086926822e+02 2.5351093872310749e-13 7.6675153420627794e+01 1.6572863878630648e+02 1.8801392084641004e+04 -999 1.14585640e+00 6.219956988e-02 -1.82150480e-01
 117 1 52831 1.9990622912913966e+02 2.2515807854611612e+02 3.0041035951740864e-13 7.2253195160673243e+01 1.6950592850855020e+02 2.0306051377520533e+04 -999 1.14331234e+00 6.192704298e-02 -1.81063023e-01
 118 1 52831 2.0536711290311007e+02 2.1977844709351422e+02 3.7238360998829918e-13 6.9038297833240449e+01 1.7417267922656640e+02 1.9062460449336148e+04 -999 1.13981410e+00 6.153868382e-02 -1.79558511e-01
 119 1 52831 2.1244542703966482e+02 2.1059796070709865e+02 4.0538459187533712e-13 6.5416264432717327e+01 1.8038795954696496e+02 2.0195426343364787e+04 -999 1.13644810e+00 6.116270286e-02 -1.78131363e-01
 120 1 52831 2.2147326669977369e+02 2.0944182713916391e+02 4.1899267313436223e-13 6.3385274746551062e+01 1.8867784085407868e+02 1.9776834471595004e+04 -999 1.13347275e+00 6.082931548e-02 -1.76898909e-01
 121 1 52831 2.1888213530861665e+02 2.0033288402400765e+02 2.9236482142555404e-13 6.2301594799884299e+01 1.8639897197446803e+02 1.9432826033636389e+04 -999 1.13098946e+00 6.055448978e-02 -1.75892069e-01
 122 1 52831 2.2207207836088816e+02 1.9277066595557935e+02 2.0621227196746700e-13 6.0954572166452486e+01 1.8984620404233181e+02 1.9317904309704256e+04 -999 1.12741716e+00 6.015838600e-02 -1.74449434e-01
 123 1 52831 2.2838018721100886e+02 1.8874922330878414e+02 2.0778816781669272e-13 5.9181724788932641e+01 1.9646318441006207e+02 1.8629911713467380e+04 -999 1.12322060e+00 5.969006580e-02 -1.72770461e-01
 124 1 52831 2.3604239041095531e+02 1.8915386843094456e+02 2.2072181163332114e-13 5.8159383081243021e+01 2.0410209931531503e+02 1.7831277856709123e+04 -999 1.11923346e+00 5.924430507e-02 -1.71205863e-01
 125 1 52831 2.4829126299052234e+02 1.9767558562083920e+02 2.3002917353750889e-13 5.7167745256469985e+01 2.1602111429695887e+02 1.7953544471513811e+04 -999 1.11579346e+00 5.886478514e-02 -1.69889860e-01
 126 1 52831 2.3895475361758406e+02 1.8299876448212959e+02 2.0732215162764330e-13 5.6476602196028317e+01 2.0763267613322094e+02 1.6865520929186874e+04 -999 1.11339666e+00 5.860206448e-02 -1.68983252e-01
 127 1 52831 2.3839583459538517e+02 1.7807076956606082e+02 2.1101668814321921e-13 5.5858244720490489e+01 2.0772251689003031e+02 1.6332675134201230e+04 -999 1.11028410e+00 5.825763235e-02 -1.67808743e-01
 128 1 52831 2.4287963438051486e+02 1.7456683207349246e+02 2.2962204030991957e-13 5.7079881453508612e+01 2.1259808452490242e+02 1.6212140609463089e+04 -999 1.10619876e+00 5.780526691e-02 -1.66286105e-01
 129 1 52831 2.5423529938382879e+02 1.8188354206668745e+02 2.4225692481258832e-13 5.7840591012693878e+01 2.2365096364345621e+02 1.6186103027058985e+04 -999 1.10220141e+00 5.737101938e-02 -1.64834953e-01
 130 1 52831 2.6442667814364199e+02 1.8772242093940042e+02 2.4551966844368560e-13 5.7360355547305247e+01 2.3315864861723193e+02 1.5192048263859953e+04 -999 1.09912580e+00 5.703371563e-02 -1.63731028e-01
 131 1 52831 2.5157471642669549e+02 1.7142476155073331e+02 1.7901083832561682e-13 5.5605533116860094e+01 2.2188125312756466e+02 1.4480559011490172e+04 -999 1.09691829e+00 5.680842849e-02 -1.62973240e-01
 132 1 52831 2.4645332405653505e+02 1.6331651766077607e+02 1.2777048938570065e-13 5.7247056901706891e+01 2.1763421070323784e+02 1.4602599193412854e+04 -999 1.09390165e+00 5.649856653e-02 -1.61938902e-01
 133 1 52831 2.4791836867204015e+02 1.6289303020354097e+02 1.0994963848249349e-13 5.8694347433862980e+01 2.1960667000578928e+02 1.3913336767293044e+04 -999 1.09045345e+00 5.614830828e-02 -1.60775015e-01
 134 1 52831 2.5631452791098906e+02 1.7097775038240087e+02 1.0816685542060059e-13 6.0199739476478904e+01 2.2744724121745102e+02 1.3925817442454108e+04 -999 1.08717833e+00 5.582825368e-02 -1.59706860e-01
 135 1 52831 2.7162168955706710e+02 1.9229513737191789e+02 1.0882813823606046e-13 6.1160116138807041e+01 2.4185220434363515e+02 1.3888786877726272e+04 -999 1.08434312e+00 5.553793274e-02 -1.58783278e-01
 136 1 52831 2.5145078252337197e+02 1.6514681088001947e+02 9.0369165741118339e-14 6.0435509581112854e+01 2.2409053425598199e+02 1.3072448903977869e+04 -999 1.08221363e+00 5.532967421e-02 -1.58121833e-01
 137 1 52831 2.4488614326250877e+02 1.5591237896341016e+02 9.6034919346603129e-14 6.0748734645636624e+01 2.1874368302781690e+02 1.3073576780906786e+04 -999 1.07949845e+00 5.506655302e-02 -1.57285799e-01
 138 1 52831 2.4633339711475350e+02 1.5441503728975246e+02 1.0939537538900412e-13 6.2032785525982121e+01 2.2095173787323969e+02 1.3147007677907057e+04 -999 1.07631449e+00 5.475915546e-02 -1.56322358e-01
 139 1 52831 2.6211429534588774e+02 1.7943244432877765e+02 1.1780674149031959e-13 6.4403347914418703e+01 2.3589107567079282e+02 1.2506212814968447e+04 -999 1.07332877e+00 5.447002178e-02 -1.55441985e-01
 140 1 52831 2.7855939501773298e+02 1.9584729165246750e+02 1.2370867018433285e-13 6.0490454310775192e+01 2.5016143631842212e+02 1.2358838676365473e+04 -999 1.07055201e+00 5.416867161e-02 -1.54590642e-01
 141 1 52831 2.5611086930429195e+02 1.6437098936143255e+02 9.6018214643330467e-14 5.8765895819242331e+01 2.3053511130840698e+02 1.2019436367269429e+04 -999 1.06853441e+00 5.395203107e-02 -1.53984511e-01
 142 1 52831 2.4588374534643236e+02 1.5259257254822415e+02 8.0626074171198158e-14 5.8239970155442620e+01 2.2213977955592466e+02 1.2478580473765205e+04 -999 1.06595243e+00 5.368054421e-02 -1.53222835e-01