TITLE = "005.02 ALPHA 1.36 GRIDLEVEL 3"

VARIABLES = "ITERATION"  "GRID_LEVEL"  "GRID_SIZE"  "CONTINUITY"  "MOMENTUMX"  "MOMENTUMY"  "MOMENTUMZ"  "ENERGY"  "TURB1"  "TURB2"  "CL_TOT"  "CD_TOT"  "CM_TOT"

DATASETAUXDATA ParticipantID   = "005"
DATASETAUXDATA SubmissionDate  = "10-31-2024"
DATASETAUXDATA Name            = "Jeffrey A. Housman"
DATASETAUXDATA Email           = "jeffrey.a.housman@nasa.gov"
DATASETAUXDATA Institution     = "NASA Ames Research Center"
DATASETAUXDATA SolverName      = "LAVA Curvilinear"
DATASETAUXDATA BasicAlgorithm  = "RANS"
DATASETAUXDATA TurbulenceModel = "SA-RC-comp-neg"
DATASETAUXDATA GridId          = "Multiblock"
DATASETAUXDATA Discretization  = "Finite difference"
DATASETAUXDATA Order           = "2"
DATASETAUXDATA DistanceCalc    = "Exact"
DATASETAUXDATA Notes           = " "

ZONE T = "005.02 - Alpha 1.36 - Grid Level 3"
AUXDATA Tstatic         = "271.0"
AUXDATA Deltat          = "-999"
AUXDATA GridFileName    = "ONERA-OAT15A_230mmChord_780mmSpan_upZ_2024_06_25-Structured_23mm_Level-3.x"
AUXDATA Misc            = " "
 0 3 234820 2.5299582702661314e+05 6.2202597146477166e+05 4.4402872969810065e-14 2.1647130657414332e+05 2.5218355891278244e+05 1.0370818193279067e+06 -999 4.82333469e-03 6.035475685e-01 -4.21284459e-04
 1 3 234820 3.6178592674728797e+05 4.8414232558395033e+05 3.9140854680154227e-14 1.7974085914499662e+05 3.4680955552459793e+05 6.7080114949233830e+05 -999 2.20703907e-02 5.761219176e-01 -1.12250658e-02
 2 3 234820 4.4857833707747556e+05 4.2582676057893777e+05 3.5189420613494876e-14 2.0027116589562481e+05 4.2687690060630249e+05 4.3425237713316211e+05 -999 3.95315274e-02 5.645344397e-01 -2.28397317e-02
 3 3 234820 5.3050849487273337e+05 3.9022628907712578e+05 3.2143601900982486e-14 2.4135043913586979e+05 5.0548124239108094e+05 2.8045561819365353e+05 -999 5.47302917e-02 5.612185594e-01 -3.26991597e-02
 4 3 234820 6.0870299447266071e+05 3.6208190982376965e+05 2.9753733554371720e-14 2.9063256598325155e+05 5.8603275849380961e+05 1.7774603770884627e+05 -999 6.99797216e-02 5.626571466e-01 -4.15745897e-02
 5 3 234820 6.8544992623759201e+05 3.6746015666899068e+05 2.7895896712214830e-14 3.4326473381459230e+05 6.7171683789762971e+05 9.5572326735087845e+04 -999 8.11276384e-02 5.654388482e-01 -4.81548088e-02
 6 3 234820 6.3071188585634716e+05 4.1524044546351198e+05 2.6509150158203111e-14 3.6696870290376863e+05 6.2042556352653913e+05 6.7177319535524162e+04 -999 8.81566831e-02 5.621479106e-01 -5.31510906e-02
 7 3 234820 6.4595559799618833e+05 4.3803152931833593e+05 2.5253946401313897e-14 3.8368612575462490e+05 6.3108999333006365e+05 5.3504676018141130e+04 -999 9.41050309e-02 5.550874964e-01 -5.76895765e-02
 8 3 234820 7.0470216210328334e+05 4.3966997675429651e+05 2.4382476353724209e-14 3.9159439602701971e+05 7.0787391477004089e+05 4.5570936208552077e+04 -999 9.92562927e-02 5.442714205e-01 -6.10104490e-02
 9 3 234820 8.2143661871371255e+05 4.5908493585179438e+05 2.3783693890001903e-14 4.2424097833721002e+05 8.4297862658895669e+05 4.0601969654402077e+04 -999 1.04748398e-01 5.297247218e-01 -6.38960101e-02
 10 3 234820 8.0983115148221015e+05 4.2086542530048685e+05 2.3400534409457614e-14 4.0973522220304742e+05 8.4003192352479510e+05 3.6596050735120072e+04 -999 1.08024671e-01 5.203256854e-01 -6.54799293e-02
 11 3 234820 7.1173895222886035e+05 3.8463324736033333e+05 2.2888283599120752e-14 3.9324858427441679e+05 7.2236090790288604e+05 3.3047728084658767e+04 -999 1.11998184e-01 5.079938048e-01 -6.75133288e-02
 12 3 234820 6.7100768877972162e+05 4.0071811566857866e+05 2.2436874256586771e-14 3.7927991303552297e+05 6.7746600417183223e+05 3.0158953897871292e+04 -999 1.14751572e-01 4.984336703e-01 -6.90086910e-02
 13 3 234820 7.0592561246335821e+05 3.7543504804570583e+05 2.2030741676874528e-14 3.8148726522445621e+05 7.1563651045166177e+05 2.7831165463820169e+04 -999 1.17164433e-01 4.887217490e-01 -7.04405257e-02
 14 3 234820 6.9501006554193806e+05 3.6215443766793114e+05 2.1732965912429187e-14 3.6247411220265861e+05 7.1597728397510212e+05 2.5823405587371668e+04 -999 1.18435162e-01 4.824684710e-01 -7.12975953e-02
 15 3 234820 7.3655485378444241e+05 3.9320946577201108e+05 2.1472520176376115e-14 3.7758624212638603e+05 7.6348782056466315e+05 2.4242385663283574e+04 -999 1.19692228e-01 4.756530927e-01 -7.22105831e-02
 16 3 234820 6.6066062569096079e+05 3.8479232465507521e+05 2.1195735945169511e-14 3.5044667831732926e+05 6.8899776547397126e+05 2.2186945482323885e+04 -999 1.20560194e-01 4.702692348e-01 -7.28646671e-02
 17 3 234820 5.7034909984219901e+05 3.1548271603163687e+05 2.0875799277127222e-14 3.1843563467241568e+05 5.8163002767032641e+05 2.0513471994046726e+04 -999 1.21567913e-01 4.636590071e-01 -7.36109265e-02
 18 3 234820 5.6930404066738160e+05 3.2661739610395295e+05 2.0602782268968171e-14 3.1038826834225224e+05 5.8011107100284414e+05 1.9138757449789915e+04 -999 1.22491021e-01 4.571678308e-01 -7.42520748e-02
 19 3 234820 5.8265774708736048e+05 2.9434660082943126e+05 2.0401195813518254e-14 3.0604977947939379e+05 5.9344129542365286e+05 1.7970586292243981e+04 -999 1.23257153e-01 4.513206836e-01 -7.47398632e-02
 20 3 234820 6.0530687376900087e+05 3.0249096777348785e+05 2.0277050025139603e-14 2.9709151852786273e+05 6.3337989967014524e+05 1.6888254778544961e+04 -999 1.23800203e-01 4.467851142e-01 -7.50570831e-02
 21 3 234820 5.0826483769303077e+05 2.7039952669485274e+05 2.0066938436431432e-14 2.7328988054092071e+05 5.2917148814642453e+05 1.5562740313463753e+04 -999 1.24341674e-01 4.414001884e-01 -7.53570450e-02
 22 3 234820 4.5820226775708038e+05 2.6556244217838882e+05 1.9865933914128339e-14 2.5731587600827939e+05 4.6720403985823190e+05 1.4474738051205431e+04 -999 1.24835482e-01 4.360087817e-01 -7.56220266e-02
 23 3 234820 4.6486512618590228e+05 2.5042696607357130e+05 1.9679956415028040e-14 2.4884014913177089e+05 4.7052578196327284e+05 1.3571155031917660e+04 -999 1.25322877e-01 4.300985089e-01 -7.58824770e-02
 24 3 234820 4.6353590742047993e+05 2.4368193680327866e+05 1.9552905951087131e-14 2.3917087814309946e+05 4.7934263531231345e+05 1.2761719084009137e+04 -999 1.25627117e-01 4.258381636e-01 -7.60508827e-02
 25 3 234820 5.4631322795815114e+05 3.0710258983089775e+05 1.9428372314893951e-14 2.5511881479851191e+05 5.8198344869043387e+05 1.2065816221755396e+04 -999 1.25940693e-01 4.209609838e-01 -7.62342396e-02
 26 3 234820 4.4392848438394821e+05 2.7143123786006024e+05 1.9212411992461518e-14 2.2527683932092597e+05 4.7626645926385513e+05 1.1158079110001676e+04 -999 1.26142623e-01 4.168973794e-01 -7.63619618e-02
 27 3 234820 3.6896588410019327e+05 2.1895046601121291e+05 1.8988114218742955e-14 2.0225920400672304e+05 3.8313668773864297e+05 1.0407662250770243e+04 -999 1.26347998e-01 4.125163241e-01 -7.64971328e-02
 28 3 234820 3.5441905534664972e+05 2.0463457782330285e+05 1.8781184104531856e-14 1.9015220610987284e+05 3.5876540070317464e+05 9.7585003672050898e+03 -999 1.26554180e-01 4.078716150e-01 -7.66374858e-02
 29 3 234820 3.7046227554523683e+05 2.0307351047827143e+05 1.8648225839316536e-14 1.8477804356671192e+05 3.8610550625160744e+05 9.1906499002009077e+03 -999 1.26708637e-01 4.042398747e-01 -7.67447703e-02
 30 3 234820 4.3262721203823667e+05 2.4961595513246924e+05 1.8552008670623882e-14 1.9408386091508681e+05 4.6281935569378076e+05 8.6941517193209493e+03 -999 1.26869934e-01 4.003832185e-01 -7.68563754e-02
 31 3 234820 3.5511954586641566e+05 2.2383149469349653e+05 1.8352605388830332e-14 1.7277501557294122e+05 3.8546608382488135e+05 7.9961444983827787e+03 -999 1.26978312e-01 3.972655818e-01 -7.69303832e-02
 32 3 234820 2.8330530673256010e+05 1.8052086090942580e+05 1.8108960617161614e-14 1.5160192817745788e+05 3.0170587693205662e+05 7.4006045914062670e+03 -999 1.27105170e-01 3.936188203e-01 -7.70156973e-02
 33 3 234820 2.5310284597771862e+05 1.5802350124695696e+05 1.7859726739881300e-14 1.3684825870525031e+05 2.5784677079320975e+05 6.8848962722873312e+03 -999 1.27244752e-01 3.895900251e-01 -7.71079033e-02
 34 3 234820 2.6987000759875018e+05 1.5478929789062869e+05 1.7663039720005215e-14 1.3192215158339340e+05 2.7821588541809743e+05 6.4436013851576690e+03 -999 1.27370431e-01 3.859300974e-01 -7.71898844e-02
 35 3 234820 2.7798663967227587e+05 1.5549735704513782e+05 1.7535020420577494e-14 1.2869389313600250e+05 2.9378558223005774e+05 6.0562318152476582e+03 -999 1.27464568e-01 3.831596146e-01 -7.72509461e-02
 36 3 234820 2.3603751396938559e+05 1.3869384420717822e+05 1.7332772171692682e-14 1.1681618481277007e+05 2.5306917848263215e+05 5.5095682351893283e+03 -999 1.27543676e-01 3.802892704e-01 -7.73046124e-02
 37 3 234820 1.9082738080103477e+05 1.2555160622743622e+05 1.7081647660727940e-14 1.0370680086139725e+05 2.0331535097876791e+05 5.0394523984847128e+03 -999 1.27635372e-01 3.769621138e-01 -7.73674930e-02
 38 3 234820 1.6571688345721280e+05 1.1158697755044780e+05 1.6807204811433698e-14 9.1977518590670297e+04 1.6997308498473460e+05 4.6312252010476868e+03 -999 1.27737326e-01 3.732858677e-01 -7.74376082e-02
 39 3 234820 1.7238360931164888e+05 1.0862800890497163e+05 1.6563663740135360e-14 8.5860045959120136e+04 1.7728748459931178e+05 4.2813285783792398e+03 -999 1.27834196e-01 3.698455370e-01 -7.75036151e-02
 40 3 234820 1.8476274546680244e+05 1.1060107631018056e+05 1.6366903527487946e-14 8.3523697650304399e+04 1.9378781993580871e+05 3.9827151781789107e+03 -999 1.27920596e-01 3.668226911e-01 -7.75617473e-02
 41 3 234820 1.5559916800318501e+05 1.0090607430503560e+05 1.6150715980198095e-14 7.5424610621551386e+04 1.6747318448655141e+05 3.5888745966151400e+03 -999 1.27983659e-01 3.641450496e-01 -7.76072871e-02
 42 3 234820 1.2152822987923704e+05 9.0100782355611984e+04 1.5872740165983155e-14 6.6047250684633560e+04 1.3148461161344900e+05 3.2497716546287647e+03 -999 1.28060277e-01 3.609356761e-01 -7.76632592e-02
 43 3 234820 1.0005999507124830e+05 8.0664769856376879e+04 1.5561606268710145e-14 5.7494691209643206e+04 1.0429557517477253e+05 2.9508045306892382e+03 -999 1.28148584e-01 3.573327190e-01 -7.77275951e-02
 44 3 234820 9.8629304087511715e+04 7.7239760896558451e+04 1.5289387722023911e-14 5.2514298651402234e+04 1.0193090155030186e+05 2.6981689724880894e+03 -999 1.28234072e-01 3.539736569e-01 -7.77888111e-02
 45 3 234820 1.0210079678455763e+05 7.6760816521973800e+04 1.5062003873338808e-14 4.9743730349360070e+04 1.0760654748682561e+05 2.4856591250610604e+03 -999 1.28311712e-01 3.510401178e-01 -7.78431559e-02
 46 3 234820 8.7277657889329901e+04 7.0606623112386107e+04 1.4833322515636646e-14 4.5539127326116643e+04 9.4168559876891988e+04 2.1912731494864115e+03 -999 1.28363928e-01 3.484579504e-01 -7.78874462e-02
 47 3 234820 6.9671362678276433e+04 6.4371747420984095e+04 1.4547315640309801e-14 4.0656592971008678e+04 7.6269870028216726e+04 1.9440037075795246e+03 -999 1.28427139e-01 3.453513197e-01 -7.79419723e-02
 48 3 234820 5.5883538700566329e+04 5.8648435346704180e+04 1.4206597909432218e-14 3.5736106257775202e+04 6.0211947316297199e+04 1.7343047375467117e+03 -999 1.28503302e-01 3.417080736e-01 -7.80070923e-02
 49 3 234820 5.0552056671902283e+04 5.5175674771883154e+04 1.3879127154733117e-14 3.2190152375388199e+04 5.3207659448846345e+04 1.5597793805329050e+03 -999 1.28582433e-01 3.380887730e-01 -7.80728413e-02
 50 3 234820 4.8362800469344693e+04 5.3191106089886409e+04 1.3591677102759669e-14 2.9805085342382597e+04 5.0815692289804414e+04 1.4153546877083877e+03 -999 1.28657183e-01 3.348244256e-01 -7.81331581e-02
 51 3 234820 4.2133568147152982e+04 5.0407887766278589e+04 1.3331903332975878e-14 2.7606098002971088e+04 4.4809747259203876e+04 1.2325208680477326e+03 -999 1.28704640e-01 3.319690064e-01 -7.81743495e-02
 52 3 234820 3.4891231475431239e+04 4.7395562993549807e+04 1.3008266135959656e-14 2.5061025494432757e+04 3.7247680203209486e+04 1.0835684295350366e+03 -999 1.28763927e-01 3.284768864e-01 -7.82222422e-02
 53 3 234820 2.8641967414973526e+04 4.4255128189677591e+04 1.2618088238293480e-14 2.2331891376650401e+04 3.0095347591177673e+04 9.6227107150279255e+02 -999 1.28840129e-01 3.242193992e-01 -7.82758342e-02
 54 3 234820 2.5168975816660313e+04 4.1672658404115333e+04 1.2225616039610641e-14 2.0088786368344510e+04 2.5945229353994604e+04 8.6754123083289244e+02 -999 1.28922640e-01 3.198937527e-01 -7.83238601e-02
 55 3 234820 2.2989950289122520e+04 3.9642202586940446e+04 1.1879991045958731e-14 1.8527364315395567e+04 2.3420270663587999e+04 7.9363661312407476e+02 -999 1.28984377e-01 3.159265415e-01 -7.83678118e-02
 56 3 234820 2.0571521129818175e+04 3.7718924201107067e+04 1.1567726219379150e-14 1.7062354916196724e+04 2.0941464500352791e+04 7.0905896305348074e+02 -999 1.29008140e-01 3.120660763e-01 -7.83674915e-02
 57 3 234820 1.7941132090696643e+04 3.5501896425529732e+04 1.1180930790749865e-14 1.5388281184228881e+04 1.8231315905558524e+04 6.4595738370755203e+02 -999 1.29040193e-01 3.071540396e-01 -7.83562182e-02
 58 3 234820 1.5689834951341427e+04 3.3102463458420061e+04 1.0708807792168370e-14 1.3640410872218506e+04 1.5997444696939714e+04 6.0533380330425632e+02 -999 1.29095646e-01 3.010483797e-01 -7.83272385e-02
 59 3 234820 1.4329448762483878e+04 3.1025509029969842e+04 1.0264535561250014e-14 1.2244101914943847e+04 1.4863697035127812e+04 5.9647589070636229e+02 -999 1.29187742e-01 2.947854498e-01 -7.82838112e-02
 60 3 234820 1.3545251078588008e+04 2.9316372741270792e+04 9.8710592849614776e-15 1.1235178737758715e+04 1.4406251805828204e+04 5.8963804096529009e+02 -999 1.29326002e-01 2.887210040e-01 -7.82354617e-02
 61 3 234820 1.2539923106767783e+04 2.7440647831321490e+04 9.4521863797245212e-15 1.0308443598856524e+04 1.3768424067021828e+04 5.9648207897794157e+02 -999 1.29600109e-01 2.812492076e-01 -7.81658506e-02
 62 3 234820 1.1930660405177818e+04 2.5336285599912539e+04 8.9227278598993754e-15 9.5872164627373404e+03 1.3540954995230108e+04 6.4200638423581370e+02 -999 1.30161812e-01 2.711039333e-01 -7.81222235e-02
 63 3 234820 1.2058917399133674e+04 2.3338268111324349e+04 8.4679049208022267e-15 9.3563565818523675e+03 1.3947329049476293e+04 7.7747844094159404e+02 -999 1.31190477e-01 2.586163318e-01 -7.81903512e-02
 64 3 234820 1.2586825183034474e+04 2.1817011878073743e+04 8.1498348874699512e-15 9.4727303861991404e+03 1.4598762212231180e+04 1.0533972899181281e+03 -999 1.32665726e-01 2.457402783e-01 -7.84708781e-02
 65 3 234820 1.3040120698305922e+04 2.0706085321961968e+04 7.9640292006195622e-15 9.5791785682039463e+03 1.5068963945022697e+04 1.6055219050562735e+03 -999 1.34524802e-01 2.327750441e-01 -7.90360417e-02
 66 3 234820 1.2642725110300635e+04 1.8762444631486720e+04 7.5952519756647898e-15 8.6427801497592263e+03 1.4521125960352207e+04 4.0511559034772185e+03 -999 1.38052454e-01 2.124858866e-01 -8.07627885e-02
 67 3 234820 1.2224524701100936e+04 1.7584114094820452e+04 7.2562058599147576e-15 8.0361909937591226e+03 1.3642312532387548e+04 1.1596406762559553e+04 -999 1.43376708e-01 1.839261505e-01 -8.45042192e-02
 68 3 234820 1.1485318551315171e+04 1.7011723793768666e+04 6.7989561722017631e-15 7.9856135480919684e+03 1.2340594343010029e+04 1.9888133291566504e+04 -999 1.47605349e-01 1.574191339e-01 -8.98488355e-02
 69 3 234820 1.1229143701922447e+04 1.8494125791502738e+04 6.1372822609567240e-15 7.9496407061769978e+03 1.1834128237565088e+04 3.7279357105018287e+04 -999 1.48438533e-01 1.358434607e-01 -9.54334841e-02
 70 3 234820 1.1107326390984133e+04 1.9935645480579093e+04 5.5535703554979455e-15 7.7082099111429734e+03 1.3802225613740004e+04 5.2630309339146370e+04 -999 1.47193907e-01 1.293576096e-01 -9.71427723e-02
 71 3 234820 8.2180225734086816e+03 1.3818898411863598e+04 4.9758716695841116e-15 6.0836149539385515e+03 8.4482783975313632e+03 8.0889713043923461e+04 -999 1.41498149e-01 1.152594135e-01 -1.00073828e-01
 72 3 234820 6.9037919611171174e+03 1.4520981041033392e+04 4.6324309320051977e-15 4.6748410724456880e+03 6.8969791622574048e+03 4.4213564963201636e+04 -999 1.32921443e-01 1.037927389e-01 -1.01198473e-01
 73 3 234820 6.2918165343949831e+03 1.7506406039778991e+04 4.2613007244976146e-15 3.9360904939269913e+03 6.7563035155794669e+03 2.4545436185666960e+04 -999 1.29003871e-01 9.908065916e-02 -1.01057730e-01
 74 3 234820 6.0868135214312642e+03 2.0512443748499256e+04 4.0218941590121186e-15 3.8302575035209925e+03 8.6380889241491659e+03 1.5701382014151623e+04 -999 1.28177881e-01 9.759363239e-02 -1.01047677e-01
 75 3 234820 5.9768563701146822e+03 1.9252798541825643e+04 3.9548750408338995e-15 3.7638753521721933e+03 1.0161379226846053e+04 1.2133084428492673e+04 -999 1.27850816e-01 9.676191524e-02 -1.01071550e-01
 76 3 234820 5.3014327649709494e+03 1.3603073186668329e+04 4.0534514624692949e-15 3.5188037568912014e+03 6.9238717809515656e+03 8.5137910087218352e+03 -999 1.27890737e-01 9.275317143e-02 -1.01602017e-01
 77 3 234820 4.9463931161589990e+03 8.8392353133623674e+03 4.2331216411613438e-15 3.7599068891678667e+03 4.8008106010079191e+03 5.1870933556776790e+03 -999 1.31682227e-01 8.779212641e-02 -1.03496963e-01
 78 3 234820 5.0524224180113188e+03 7.8167134315887633e+03 4.3038270323856291e-15 3.8899786788106526e+03 4.8289940258720408e+03 5.5450814912294236e+03 -999 1.40667164e-01 8.370664842e-02 -1.07399902e-01
 79 3 234820 5.3705486109572857e+03 8.1801965521754228e+03 4.2200857251113843e-15 3.8559705129982772e+03 5.1711304696505522e+03 8.6230120529475425e+03 -999 1.51337095e-01 8.076029881e-02 -1.12219266e-01
 80 3 234820 5.4492721812514374e+03 8.5585903185291245e+03 4.0856887571319642e-15 3.7679373407709450e+03 5.2914600303304187e+03 1.1623144625168523e+04 -999 1.60581985e-01 7.876958888e-02 -1.16639299e-01
 81 3 234820 3.8286958652698736e+03 5.4148219652524303e+03 4.3080396018593465e-15 2.8052528853331187e+03 3.8068459939859922e+03 2.1972701361625124e+04 -999 1.87970756e-01 7.441963678e-02 -1.31084098e-01
 82 3 234820 3.1659487112040870e+03 3.9575835296201940e+03 4.6191497234174166e-15 2.2739630593263141e+03 3.2053215000658060e+03 1.1526794028129925e+04 -999 2.20298054e-01 6.893295170e-02 -1.48444716e-01
 83 3 234820 2.7858232695971560e+03 3.5173149728465273e+03 4.7208308402086250e-15 1.9476959797208158e+03 2.6859016483726527e+03 2.4108822356533183e+04 -999 2.49750462e-01 6.330832069e-02 -1.63005621e-01
 84 3 234820 2.8068050212447474e+03 3.6758537218366218e+03 4.7687248513072354e-15 1.6448158229966655e+03 2.6180739199879395e+03 2.2266567502550890e+04 -999 2.78644130e-01 5.765234244e-02 -1.74397377e-01
 85 3 234820 3.0439429360395243e+03 3.9083972694450413e+03 5.1025664616293009e-15 1.2983671774927122e+03 2.8758324498853044e+03 1.6623997157858230e+04 -999 3.08299501e-01 5.236391486e-02 -1.82769718e-01
 86 3 234820 2.3316547578630593e+03 3.1802296772912628e+03 1.5142726168026101e-13 9.4005138689112323e+02 2.2089084229353289e+03 1.1100179340939123e+04 -999 3.37564884e-01 4.904556170e-02 -1.86973370e-01
 87 3 234820 1.9920964285534112e+03 2.5583625725978682e+03 2.4684825432359047e-13 6.9156859468457992e+02 1.8975680243512879e+03 8.4477086349445126e+03 -999 3.70501969e-01 4.604580888e-02 -1.90501773e-01
 88 3 234820 1.9098341360078143e+03 2.2373042516623295e+03 2.7850402661216212e-13 5.6563766517759609e+02 1.8409641841445591e+03 7.6398854694489610e+03 -999 3.95443360e-01 4.426347749e-02 -1.92200538e-01
 89 3 234820 1.9661876221036682e+03 2.0667061669028758e+03 2.8832251387505308e-13 5.0218120360321888e+02 1.9294847046679208e+03 6.4709593532633335e+03 -999 4.13128024e-01 4.320880970e-02 -1.92890358e-01
 90 3 234820 2.1260412512930407e+03 1.9911500920587639e+03 2.9104988655611532e-13 4.7113409412351160e+02 2.1346824945379030e+03 5.2046769052464961e+03 -999 4.25559091e-01 4.257425199e-02 -1.93116646e-01
 91 3 234820 1.6517394351728205e+03 1.7417616158050048e+03 4.7461058698560268e-13 3.8315884352009658e+02 1.6155467554052827e+03 4.2298412802059165e+03 -999 4.62110707e-01 4.125717277e-02 -1.91740242e-01
 92 3 234820 1.3528842241551492e+03 1.5139601293330613e+03 8.4510962953028374e-13 3.2032366951640807e+02 1.2911795527947243e+03 3.7417174759277891e+03 -999 4.98984454e-01 4.006660605e-02 -1.89698231e-01
 93 3 234820 1.2175510935132802e+03 1.3885772885845790e+03 1.0773515596615091e-12 2.8737792566005322e+02 1.1497737395863792e+03 3.7196135275683891e+03 -999 5.23945025e-01 3.939436212e-02 -1.87809823e-01
 94 3 234820 1.1544656535683594e+03 1.2959831748155416e+03 1.2324142944950767e-12 2.6395923690524444e+02 1.0858610789531342e+03 3.8570751696774960e+03 -999 5.46220597e-01 3.888144891e-02 -1.85817349e-01
 95 3 234820 1.1419552509828563e+03 1.2663283805908216e+03 1.3616967766824338e-12 2.5306098798790188e+02 1.0737068211003570e+03 4.0152563630925497e+03 -999 5.58463402e-01 3.863541007e-02 -1.84545391e-01
 96 3 234820 1.0192009101557564e+03 1.2881280830362143e+03 1.6223326991294012e-12 2.5573034647548619e+02 9.5200325740834603e+02 5.3078461177958015e+03 -999 5.77910594e-01 3.831757993e-02 -1.82409545e-01
 97 3 234820 9.2731708754341139e+02 1.2957422847669739e+03 2.0621357601529985e-12 2.7310554811050872e+02 8.6139313285648439e+02 5.3270167431088839e+03 -999 5.98186785e-01 3.783601653e-02 -1.80260413e-01
 98 3 234820 8.6341128136239161e+02 1.2700780081392218e+03 2.8685412361179239e-12 3.0243217379462055e+02 7.9884394687868098e+02 6.1463877176139713e+03 -999 6.19435587e-01 3.715259608e-02 -1.78055949e-01
 99 3 234820 8.4153043994191512e+02 1.1862034209596302e+03 3.3065100074154846e-12 3.2565672184595570e+02 7.7617634898053973e+02 5.8738184408971210e+03 -999 6.35811801e-01 3.647816797e-02 -1.76305241e-01
 100 3 234820 8.4084074945992029e+02 1.1707821528888703e+03 3.7263243208644926e-12 3.3634723739231902e+02 7.7571434027926330e+02 6.6299201589733448e+03 -999 6.45998155e-01 3.597843910e-02 -1.75128395e-01
 101 3 234820 8.4084074945992029e+02 1.2390842981077419e+03 4.1863040209938338e-12 3.5356305888255349e+02 7.7794521096094854e+02 5.2930278524969681e+03 -999 6.45998155e-01 3.597843910e-02 -1.75128395e-01
 102 3 234820 8.6539332869700809e+02 1.2718149213483871e+03 4.3258811677992183e-12 3.7064691979751677e+02 8.0166537047751115e+02 5.0760890574297327e+03 -999 6.51865451e-01 3.553905150e-02 -1.74442338e-01
 103 3 234820 8.8506548848866134e+02 1.1096322435149762e+03 2.7411242449894354e-12 3.0120604035729502e+02 8.1684824152014642e+02 5.9157165273148921e+03 -999 6.54997833e-01 3.547449804e-02 -1.74253528e-01
 104 3 234820 1.0410799998077821e+03 9.7640390227738624e+02 1.4028731231041808e-12 2.4921188171001961e+02 9.7133025993554406e+02 6.2214651970604982e+03 -999 6.59227779e-01 3.538652645e-02 -1.73984070e-01
 105 3 234820 1.1669257708229418e+03 9.2501043110198691e+02 8.5961338316226643e-13 2.3756323865589323e+02 1.0984495730577687e+03 6.2004872607830830e+03 -999 6.62973200e-01 3.528308066e-02 -1.73646311e-01
 106 3 234820 1.2060791156903842e+03 9.0380582635854000e+02 6.6960099425809717e-13 2.3160761892665627e+02 1.1367701279124053e+03 5.6954857908636332e+03 -999 6.65049266e-01 3.521526069e-02 -1.73448090e-01
 107 3 234820 1.2535638438134495e+03 8.8052026980599453e+02 5.0423972121444299e-13 2.2749886732493374e+02 1.1839815276761890e+03 5.8965753232872521e+03 -999 6.67573174e-01 3.510693151e-02 -1.73142311e-01
 108 3 234820 1.3115367692923808e+03 8.5362773215008269e+02 4.4943571775817314e-13 2.2377335858679683e+02 1.2415315192012570e+03 6.2697795492427622e+03 -999 6.71127208e-01 3.492899785e-02 -1.72696341e-01
 109 3 234820 1.3491209071833209e+03 8.4023515463360343e+02 4.4325854726065064e-13 2.2306483814785005e+02 1.2775245039292342e+03 5.6406988983435267e+03 -999 6.73017732e-01 3.481583307e-02 -1.72441152e-01
 110 3 234820 1.4045094654678016e+03 8.3415323699033922e+02 4.3195319340093409e-13 2.2446055172090809e+02 1.3354926202048312e+03 5.7279468355399058e+03 -999 6.75203103e-01 3.465215087e-02 -1.72037531e-01
 111 3 234820 1.4003330155992512e+03 8.1896255921277964e+02 3.7020737304703884e-13 2.2270739193185514e+02 1.3317273058883256e+03 5.7392056967718172e+03 -999 6.77429804e-01 3.448107337e-02 -1.71585448e-01
 112 3 234820 1.4219736779136915e+03 8.0141389575950666e+02 3.5730704968561036e-13 2.2479424846761569e+02 1.3513293108452337e+03 5.9499174940005332e+03 -999 6.80307176e-01 3.424852805e-02 -1.70981890e-01
 113 3 234820 1.4935910162799544e+03 7.9272580243973118e+02 3.5918930862600796e-13 2.2625912650191162e+02 1.4247031978946552e+03 6.1140468477154436e+03 -999 6.84121557e-01 3.393065529e-02 -1.70214412e-01
 114 3 234820 1.4989482810231730e+03 7.7900234760832257e+02 3.4772977916005518e-13 2.1711398184159910e+02 1.4400602321470776e+03 5.6626333290058428e+03 -999 6.86606016e-01 3.371045794e-02 -1.69737096e-01
 115 3 234820 1.4966013766726287e+03 7.6895949651447791e+02 3.3673996929485567e-13 2.1561175899147165e+02 1.4396981984268518e+03 5.7032703097560589e+03 -999 6.89237365e-01 3.347398274e-02 -1.69260847e-01
 116 3 234820 1.4541286955334501e+03 7.4726906075735371e+02 3.0905964320288459e-13 2.1540206140765287e+02 1.3818992598462073e+03 5.9177207799796115e+03 -999 6.92752188e-01 3.318251846e-02 -1.68730934e-01
 117 3 234820 1.4309340805592822e+03 7.3391757806046985e+02 3.2670040895585591e-13 2.0284035002760385e+02 1.3667907302758076e+03 6.1438294566660388e+03 -999 6.97358757e-01 3.279435162e-02 -1.68118274e-01
 118 3 234820 1.3900641934257203e+03 7.2297555907735637e+02 3.1872343048689260e-13 2.0899441175899167e+02 1.3167324351390268e+03 6.0403419766788229e+03 -999 7.01436527e-01 3.241424390e-02 -1.67581282e-01
 119 3 234820 1.4742091722884491e+03 7.3961164548924796e+02 3.0157906251771287e-13 2.0586200303365965e+02 1.4180516151078434e+03 6.0030796168275137e+03 -999 7.05347567e-01 3.202315854e-02 -1.67071312e-01
 120 3 234820 1.4199069915183225e+03 7.2633276629785325e+02 2.8639865745490019e-13 2.0273973429401087e+02 1.3687935676721791e+03 5.7455856828898750e+03 -999 7.08036875e-01 3.174278414e-02 -1.66698172e-01
 121 3 234820 1.2968690273267860e+03 7.0720713202588070e+02 2.5243035614582317e-13 2.0128277097708991e+02 1.2236647337163502e+03 6.1773417815496869e+03 -999 7.12940764e-01 3.128246784e-02 -1.66126611e-01
 122 3 234820 1.1698829344757767e+03 6.7987686608197293e+02 2.4265369962325230e-13 1.9679218186390545e+02 1.1114557760137841e+03 6.3948788978743160e+03 -999 7.19777382e-01 3.066380995e-02 -1.65605233e-01
 123 3 234820 1.1550143075983342e+03 6.6533906327962518e+02 2.3708891431382647e-13 2.0436142686224326e+02 1.0826469018324453e+03 6.0283758221601838e+03 -999 7.24298325e-01 3.021708259e-02 -1.65411731e-01
 124 3 234820 1.1112085894446263e+03 6.6853589231679575e+02 2.6979758271200628e-13 1.8623565674078819e+02 1.0659563337016111e+03 6.2551225996143121e+03 -999 7.30279904e-01 2.956944112e-02 -1.65236781e-01
 125 3 234820 1.1236643921244172e+03 6.5864522853725509e+02 2.3667328087521318e-13 1.9695505327582183e+02 1.0538234455627548e+03 5.5919076126941254e+03 -999 7.32732160e-01 2.925857988e-02 -1.65128648e-01
 126 3 234820 9.2817752705338933e+02 6.0890026307367611e+02 2.3357099667651286e-13 1.8467465266060381e+02 8.6460946051300391e+02 6.0344535370379972e+03 -999 7.38864650e-01 2.848143153e-02 -1.64868420e-01
 127 3 234820 8.1369317288957529e+02 5.7936985353251214e+02 2.3084444601958902e-13 1.7327310898352235e+02 7.4732210389663453e+02 5.8766703977016350e+03 -999 7.45361893e-01 2.760876874e-02 -1.64454098e-01
 128 3 234820 7.7163105092134469e+02 5.6521052149216086e+02 2.1666908435055738e-13 1.6135888559828462e+02 7.1686710029347489e+02 5.5230634742259408e+03 -999 7.50284976e-01 2.694487567e-02 -1.64017958e-01
 129 3 234820 8.0508142101478836e+02 5.6773582908963806e+02 2.2681141523211019e-13 1.6990898520317376e+02 7.3711680629286980e+02 5.3770054675454912e+03 -999 7.56162737e-01 2.617995430e-02 -1.63439288e-01
 130 3 234820 7.6815770648221098e+02 5.5427992912189984e+02 2.1287781187171636e-13 1.5886009466475682e+02 7.0882902448707273e+02 4.6813505247341272e+03 -999 7.58903073e-01 2.587097235e-02 -1.63209088e-01
 131 3 234820 5.7781308360065725e+02 5.1324471232846815e+02 2.6409682451789112e-13 1.5668882145000305e+02 5.1489156462884489e+02 5.0062123993043297e+03 -999 7.66145027e-01 2.511570983e-02 -1.62591399e-01
 132 3 234820 5.1301132676067118e+02 4.8882422429377658e+02 2.7994427686371583e-13 1.4685476751766291e+02 4.5465958065685697e+02 4.7570323602424342e+03 -999 7.72872380e-01 2.449750323e-02 -1.61945022e-01
 133 3 234820 4.8770808142154664e+02 4.7977543669589903e+02 2.6003641714196914e-13 1.4197120757492647e+02 4.2500353179651347e+02 4.5383514333081321e+03 -999 7.77545785e-01 2.411821094e-02 -1.61404913e-01
 134 3 234820 4.7959734201261176e+02 4.7248010992118594e+02 2.4452339014504177e-13 1.3803426156575631e+02 4.1928405991634025e+02 4.3840116343595419e+03 -999 7.81753999e-01 2.380775780e-02 -1.60886453e-01
 135 3 234820 4.7093986330390413e+02 4.6813270093269932e+02 2.3593541192055340e-13 1.3645731764328031e+02 4.0720154134058748e+02 4.0489134279662376e+03 -999 7.84288421e-01 2.363148618e-02 -1.60547810e-01
 136 3 234820 4.4767453770797488e+02 4.4575510446844680e+02 1.6385704402176968e-13 1.3350277395483647e+02 3.8462552011537150e+02 4.3980046981063842e+03 -999 7.88522103e-01 2.335890434e-02 -1.59999809e-01
 137 3 234820 4.2709799863911604e+02 4.3521714894594112e+02 1.7543984649369190e-13 1.2825107923850138e+02 3.6374562521458176e+02 4.4769009611461652e+03 -999 7.92544561e-01 2.309657011e-02 -1.59446338e-01
 138 3 234820 4.3126737722675898e+02 4.4070736185714065e+02 1.7150867261949444e-13 1.2492318640175310e+02 3.6853415858028598e+02 4.6460405284889721e+03 -999 7.95869809e-01 2.286397294e-02 -1.58963439e-01
 139 3 234820 4.3233488883326004e+02 4.2852142260831596e+02 1.6518913909553586e-13 1.2177354299732204e+02 3.6824311622412586e+02 4.7074716089623716e+03 -999 7.98237745e-01 2.268889294e-02 -1.58639581e-01
 140 3 234820 4.4686706771103087e+02 4.2730953781187270e+02 1.5897417757119704e-13 1.2026136481754091e+02 3.8350948397912464e+02 4.9070731534322440e+03 -999 7.99949842e-01 2.255006461e-02 -1.58405469e-01
 141 3 234820 4.3312958529765643e+02 4.0961472433968885e+02 1.0204682360035310e-13 1.1703383784634896e+02 3.7015999448229940e+02 5.3627207631781548e+03 -999 8.02420861e-01 2.234084609e-02 -1.58063498e-01