TITLE = "005.02 ALPHA 3.25 GRIDLEVEL 3"

VARIABLES = "ITERATION"  "GRID_LEVEL"  "GRID_SIZE"  "CONTINUITY"  "MOMENTUMX"  "MOMENTUMY"  "MOMENTUMZ"  "ENERGY"  "TURB1"  "TURB2"  "CL_TOT"  "CD_TOT"  "CM_TOT"

DATASETAUXDATA ParticipantID   = "005"
DATASETAUXDATA SubmissionDate  = "10-31-2024"
DATASETAUXDATA Name            = "Jeffrey A. Housman"
DATASETAUXDATA Email           = "jeffrey.a.housman@nasa.gov"
DATASETAUXDATA Institution     = "NASA Ames Research Center"
DATASETAUXDATA SolverName      = "LAVA Curvilinear"
DATASETAUXDATA BasicAlgorithm  = "RANS"
DATASETAUXDATA TurbulenceModel = "SA-RC-comp-neg"
DATASETAUXDATA GridId          = "Multiblock"
DATASETAUXDATA Discretization  = "Finite difference"
DATASETAUXDATA Order           = "2"
DATASETAUXDATA DistanceCalc    = "Exact"
DATASETAUXDATA Notes           = " "

ZONE T = "005.02 - Alpha 3.25 - Grid Level 3"
AUXDATA Tstatic         = "271.0"
AUXDATA Deltat          = "-999"
AUXDATA GridFileName    = "ONERA-OAT15A_230mmChord_780mmSpan_upZ_2024_06_25-Structured_23mm_Level-3.x"
AUXDATA Misc            = " "
 0 3 234820 2.6893957477722981e+05 6.4754866737405513e+05 4.4403333048629121e-14 2.4549488310579737e+05 2.7522956935222290e+05 1.0408957147938624e+06 -999 1.09205881e-02 6.040670974e-01 -6.82724902e-03
 1 3 234820 3.7891630888503621e+05 5.0625679952876450e+05 3.9158773830859236e-14 1.9869773170919225e+05 3.6735019651587331e+05 6.7331488792126789e+05 -999 4.92509002e-02 5.783448284e-01 -2.27353312e-02
 2 3 234820 4.5989075076690363e+05 4.4627862458018569e+05 3.5230171406159791e-14 2.2050557214696432e+05 4.4037438993678096e+05 4.3593548646341020e+05 -999 9.23027429e-02 5.694491938e-01 -4.02895089e-02
 3 3 234820 5.3925101953859604e+05 4.0679023588463053e+05 3.2194531628417500e-14 2.5902927763253837e+05 5.1541740258173930e+05 2.8157929140000284e+05 -999 1.29989887e-01 5.678885286e-01 -5.62502262e-02
 4 3 234820 6.1604694909238082e+05 3.7616958388609684e+05 2.9813096911055698e-14 3.0551953688079194e+05 5.9402361522700521e+05 1.7854497969793610e+05 -999 1.62747178e-01 5.706950348e-01 -6.86134331e-02
 5 3 234820 6.9096763381317782e+05 3.7948228384651116e+05 2.7959661443452197e-14 3.5648602570568537e+05 6.7755116188005940e+05 9.6320333604551677e+04 -999 1.88396792e-01 5.748365815e-01 -7.79394032e-02
 6 3 234820 6.3681409226915834e+05 4.2388635737876489e+05 2.6569750171117169e-14 3.7897917038726778e+05 6.2676536368428008e+05 6.7591060296573822e+04 -999 2.05846377e-01 5.723069461e-01 -8.49340134e-02
 7 3 234820 6.5158261382842588e+05 4.4442647893825843e+05 2.5304200689653967e-14 3.9480259550808248e+05 6.3710317228885437e+05 5.3807060292456619e+04 -999 2.19887681e-01 5.657059019e-01 -9.10942832e-02
 8 3 234820 7.0822247792826395e+05 4.4459671292998909e+05 2.4424941001917262e-14 4.0198191350775701e+05 7.1122983998976671e+05 4.5910284395846757e+04 -999 2.30778008e-01 5.552331978e-01 -9.57522841e-02
 9 3 234820 8.2374201280648552e+05 4.6315387721483334e+05 2.3806866943943185e-14 4.3353292811047868e+05 8.4509919803907420e+05 4.0875895238938254e+04 -999 2.41851235e-01 5.411694148e-01 -9.99899902e-02
 10 3 234820 8.1042727395579056e+05 4.2398533776520129e+05 2.3423278947661495e-14 4.1844901244034973e+05 8.3986729122926190e+05 3.6781875316047488e+04 -999 2.48339982e-01 5.321314658e-01 -1.02331232e-01
 11 3 234820 7.1441517410197447e+05 3.8882231652921776e+05 2.2918446946284972e-14 4.0186717805574543e+05 7.2484999364769389e+05 3.3204046793724527e+04 -999 2.56369561e-01 5.202587533e-01 -1.05346446e-01
 12 3 234820 6.7308904446938692e+05 4.0318401243585261e+05 2.2486476422588859e-14 3.8731203834664769e+05 6.7938747379696416e+05 3.0279921874636966e+04 -999 2.62233057e-01 5.110238328e-01 -1.07523420e-01
 13 3 234820 7.0740954252916633e+05 3.7857387689385971e+05 2.2110142632499914e-14 3.8899992375416128e+05 7.1706475741842564e+05 2.7922872167635400e+04 -999 2.67705635e-01 5.015933465e-01 -1.09558201e-01
 14 3 234820 6.9542244489599299e+05 3.6410156747309043e+05 2.1821720254147799e-14 3.6982602256766119e+05 7.1576358834005997e+05 2.5924358211131042e+04 -999 2.70759005e-01 4.954671812e-01 -1.10746869e-01
 15 3 234820 7.3734595396314608e+05 3.9484981978979299e+05 2.1568971183925383e-14 3.8403584410838358e+05 7.6408260897920642e+05 2.4347009162983421e+04 -999 2.73794814e-01 4.887522132e-01 -1.12011320e-01
 16 3 234820 6.6118398175467725e+05 3.8551105113765283e+05 2.1305791679041035e-14 3.5662608252587408e+05 6.8915323846386524e+05 2.2275824390617385e+04 -999 2.75838347e-01 4.834342750e-01 -1.12927432e-01
 17 3 234820 5.7193108931667672e+05 3.1746238255907380e+05 2.0997571027187032e-14 3.2495022377747449e+05 5.8298011725232389e+05 2.0585949521741401e+04 -999 2.78155738e-01 4.768990374e-01 -1.13972647e-01
 18 3 234820 5.6963986248419492e+05 3.2762166285531304e+05 2.0733555067644177e-14 3.1620829925683071e+05 5.8008782160042494e+05 1.9213085226561343e+04 -999 2.80185854e-01 4.704890650e-01 -1.14858768e-01
 19 3 234820 5.8335871185091569e+05 2.9630480015226855e+05 2.0539478295011925e-14 3.1166385013592569e+05 5.9410213601859286e+05 1.8027298869309561e+04 -999 2.81806903e-01 4.647104181e-01 -1.15515783e-01
 20 3 234820 6.0438476324924105e+05 3.0285581583847757e+05 2.0422565007554235e-14 3.0239021962766140e+05 6.3179706743458018e+05 1.6922510943580604e+04 -999 2.82923144e-01 4.602318840e-01 -1.15928178e-01
 21 3 234820 5.0910440557931759e+05 2.7171129150250310e+05 2.0216486197161041e-14 2.7857493194447120e+05 5.2959596225350711e+05 1.5592772920779998e+04 -999 2.84034087e-01 4.549013215e-01 -1.16303433e-01
 22 3 234820 4.5914416760303680e+05 2.6641398527380254e+05 2.0017581940738727e-14 2.6212800523304453e+05 4.6802933777266368e+05 1.4506815202652164e+04 -999 2.85064626e-01 4.495590498e-01 -1.16628839e-01
 23 3 234820 4.6501223215047177e+05 2.5155165454342309e+05 1.9825755205653861e-14 2.5327177606165936e+05 4.7063813967238937e+05 1.3592274361722348e+04 -999 2.86113432e-01 4.436963404e-01 -1.16945168e-01
 24 3 234820 4.6364327383536351e+05 2.4422427410602404e+05 1.9692920363351375e-14 2.4358189302286587e+05 4.7904571039836085e+05 1.2790026299714180e+04 -999 2.86797703e-01 4.394689740e-01 -1.17146425e-01
 25 3 234820 5.4194015424378833e+05 3.0338584600894846e+05 1.9564250491249843e-14 2.5757833583300404e+05 5.7610396247240086e+05 1.2099256351964876e+04 -999 2.87518631e-01 4.346636648e-01 -1.17361246e-01
 26 3 234820 4.4207976239575999e+05 2.6897220902198413e+05 1.9342035858383513e-14 2.2845966475694525e+05 4.7321405976267857e+05 1.1190534117119887e+04 -999 2.88005586e-01 4.306056118e-01 -1.17505179e-01
 27 3 234820 3.6876764750280546e+05 2.1853418884769391e+05 1.9109517163686636e-14 2.0558586913395836e+05 3.8244658126910141e+05 1.0424970179777592e+04 -999 2.88502904e-01 4.262344073e-01 -1.17656866e-01
 28 3 234820 3.5426621415567945e+05 2.0461184224375463e+05 1.8894059423235396e-14 1.9336913656779705e+05 3.5853682361420663e+05 9.7649645557135245e+03 -999 2.88998711e-01 4.216054006e-01 -1.17812243e-01
 29 3 234820 3.7007607376999891e+05 2.0283174046752794e+05 1.8752069022836080e-14 1.8785152259642424e+05 3.8532724431041366e+05 9.1971022438485506e+03 -999 2.89363461e-01 4.179845669e-01 -1.17929132e-01
 30 3 234820 4.2989044675502338e+05 2.4767393575798333e+05 1.8631499447419048e-14 1.9615159374313711e+05 4.5930416335754102e+05 8.6958559640885942e+03 -999 2.89736124e-01 4.141397140e-01 -1.18050106e-01
 31 3 234820 3.5376465743443079e+05 2.2223120106317761e+05 1.8425780379429183e-14 1.7514373207347508e+05 3.8330317714580736e+05 8.0029651904163838e+03 -999 2.89980484e-01 4.110294202e-01 -1.18125068e-01
 32 3 234820 2.8328238130764011e+05 1.7996184194498337e+05 1.8175938764390841e-14 1.5414468563391504e+05 3.0116799104106572e+05 7.4178564762946580e+03 -999 2.90263399e-01 4.073946673e-01 -1.18211375e-01
 33 3 234820 2.5353157400541400e+05 1.5801714235558771e+05 1.7918924341005481e-14 1.3937506904072099e+05 2.5817155619112248e+05 6.9072705482412557e+03 -999 2.90571231e-01 4.033782218e-01 -1.18304202e-01
 34 3 234820 2.6930785771074850e+05 1.5450134259985021e+05 1.7716635653906288e-14 1.3421381003373518e+05 2.7747007368993398e+05 6.4600284523678974e+03 -999 2.90844208e-01 3.997452587e-01 -1.18385931e-01
 35 3 234820 2.7806578096927021e+05 1.5583215021145792e+05 1.7581318527126618e-14 1.3099048610098771e+05 2.9370453389767878e+05 6.0680591036813430e+03 -999 2.91047915e-01 3.969859589e-01 -1.18447167e-01
 36 3 234820 2.3615247160891510e+05 1.3882981661323228e+05 1.7377389563298711e-14 1.1894511794249516e+05 2.5295783065285822e+05 5.5208049480798372e+03 -999 2.91224138e-01 3.941204289e-01 -1.18496512e-01
 37 3 234820 1.9140512861049589e+05 1.2560811603155402e+05 1.7125848531889716e-14 1.0578898250228981e+05 2.0362825853995982e+05 5.0524381656758478e+03 -999 2.91429934e-01 3.908095540e-01 -1.18554531e-01
 38 3 234820 1.6648712581873083e+05 1.1178250743164714e+05 1.6846184059492476e-14 9.4049697948447036e+04 1.7058170350394968e+05 4.6529459195650306e+03 -999 2.91660010e-01 3.871494079e-01 -1.18619852e-01
 39 3 234820 1.7285044064714186e+05 1.0870815559005276e+05 1.6598885042687294e-14 8.7742104436214533e+04 1.7757342295660634e+05 4.3070626927074100e+03 -999 2.91877954e-01 3.837175949e-01 -1.18682310e-01
 40 3 234820 1.8360261238774314e+05 1.0936142447735640e+05 1.6403182755920831e-14 8.5042921643192298e+04 1.9213443268064409e+05 4.0047398175535209e+03 -999 2.92066505e-01 3.807566042e-01 -1.18737306e-01
 41 3 234820 1.5532667636565794e+05 1.0029056380735178e+05 1.6180540936435681e-14 7.6956690967532908e+04 1.6668285281428212e+05 3.6077807492638262e+03 -999 2.92212276e-01 3.781034107e-01 -1.18777098e-01
 42 3 234820 1.2175450135206705e+05 9.0045061227088489e+04 1.5905934527779442e-14 6.7496537864456463e+04 1.3127887869833744e+05 3.2679093862844225e+03 -999 2.92392277e-01 3.748976532e-01 -1.18827221e-01
 43 3 234820 1.0066819207973346e+05 8.0857446778062920e+04 1.5586180020395238e-14 5.8825159042470848e+04 1.0464958064969380e+05 2.9741624947923719e+03 -999 2.92599190e-01 3.712976806e-01 -1.18886374e-01
 44 3 234820 9.9505273955590135e+04 7.7327200200505918e+04 1.5308809119063811e-14 5.3730604710192463e+04 1.0281897107696881e+05 2.7219460881748992e+03 -999 2.92795275e-01 3.679526866e-01 -1.18944564e-01
 45 3 234820 1.0293652268441037e+05 7.7072820375454772e+04 1.5074562682717094e-14 5.0873874520593003e+04 1.0852894734611454e+05 2.5056680439861825e+03 -999 2.92967836e-01 3.650376018e-01 -1.18998318e-01
 46 3 234820 8.7918565308586301e+04 7.0722315298593414e+04 1.4851485547936895e-14 4.6526079942190474e+04 9.4787283532127680e+04 2.2147502238123052e+03 -999 2.93100156e-01 3.624549258e-01 -1.19039117e-01
 47 3 234820 7.0291489243378164e+04 6.4485426632906994e+04 1.4556973009121768e-14 4.1540086690108335e+04 7.6768649862928709e+04 1.9719469145687813e+03 -999 2.93260433e-01 3.593772165e-01 -1.19089956e-01
 48 3 234820 5.6488523599487249e+04 5.8783219184601534e+04 1.4212516014034127e-14 3.6503966932911106e+04 6.0617925409943695e+04 1.7599676071300109e+03 -999 2.93451852e-01 3.557565064e-01 -1.19153042e-01
 49 3 234820 5.1280255341341232e+04 5.5326050585509991e+04 1.3888259440593073e-14 3.2888466528552657e+04 5.3784486292505062e+04 1.5865412936241150e+03 -999 2.93642363e-01 3.521873841e-01 -1.19219602e-01
 50 3 234820 4.9175690255781978e+04 5.3338796807157654e+04 1.3596229111475781e-14 3.0464494649444670e+04 5.1545790126698746e+04 1.4441186914649179e+03 -999 2.93812333e-01 3.489987332e-01 -1.19283737e-01
 51 3 234820 4.2888616930222946e+04 5.0555745460781989e+04 1.3341335347411952e-14 2.8208938838775299e+04 4.5512141621525239e+04 1.2588472919303626e+03 -999 2.93941412e-01 3.462007399e-01 -1.19324249e-01
 52 3 234820 3.5523387351635283e+04 4.7522011073020360e+04 1.3021384391763321e-14 2.5587955046393523e+04 3.7834363689942962e+04 1.1076148625529966e+03 -999 2.94101205e-01 3.427645949e-01 -1.19372959e-01
 53 3 234820 2.9200871618558151e+04 4.4380351899235582e+04 1.2628595941190248e-14 2.2796712058750607e+04 3.0600616358417275e+04 9.8345979116295825e+02 -999 2.94295039e-01 3.386006600e-01 -1.19430385e-01
 54 3 234820 2.5725679453269528e+04 4.1817996641989070e+04 1.2229684085799758e-14 2.0514487140563066e+04 2.6453869455374079e+04 8.8597475886813572e+02 -999 2.94487857e-01 3.343857037e-01 -1.19487062e-01
 55 3 234820 2.3539586516937376e+04 3.9784309088836890e+04 1.1901438253825504e-14 1.8900842511942981e+04 2.3923398634332156e+04 8.0940155735237806e+02 -999 2.94642817e-01 3.304786138e-01 -1.19544127e-01
 56 3 234820 2.1087102101297882e+04 3.7873405268871677e+04 1.1593251489777203e-14 1.7418122481280934e+04 2.1403572803004590e+04 7.2252273524229804e+02 -999 2.94730702e-01 3.267188035e-01 -1.19542453e-01
 57 3 234820 1.8408775989638747e+04 3.5672869318960358e+04 1.1214314903454122e-14 1.5722782444245911e+04 1.8617528388162274e+04 6.5797039591909413e+02 -999 2.94829942e-01 3.219418968e-01 -1.19527214e-01
 58 3 234820 1.6128159799563544e+04 3.3294229278269369e+04 1.0748104143983600e-14 1.3949311991113413e+04 1.6309765907787338e+04 6.1991817926721444e+02 -999 2.94939123e-01 3.160209323e-01 -1.19490824e-01
 59 3 234820 1.4752681217899491e+04 3.1235446354848453e+04 1.0305091685259494e-14 1.2521269518740606e+04 1.5123292023709431e+04 6.0617408524589962e+02 -999 2.95042313e-01 3.099602967e-01 -1.19437312e-01
 60 3 234820 1.3945267960915382e+04 2.9538598618398853e+04 9.9135961451897501e-15 1.1469052834523081e+04 1.4616092334584433e+04 5.9514607793468360e+02 -999 2.95144579e-01 3.040973989e-01 -1.19376328e-01
 61 3 234820 1.2878087587161293e+04 2.7687892783651943e+04 9.5129925895423135e-15 1.0512836578744509e+04 1.3911509028335357e+04 5.9848965120347577e+02 -999 2.95223564e-01 2.969563577e-01 -1.19229006e-01
 62 3 234820 1.2157913595394031e+04 2.5609171844464858e+04 8.9874206517543591e-15 9.7368465953166397e+03 1.3590361335300775e+04 6.3620450602818300e+02 -999 2.95425277e-01 2.872823657e-01 -1.19046552e-01
 63 3 234820 1.2161472096369645e+04 2.3624704863460414e+04 8.5440215609744287e-15 9.4749841487846406e+03 1.3915141687943909e+04 7.4130747654807590e+02 -999 2.95858909e-01 2.753699617e-01 -1.18890387e-01
 64 3 234820 1.2647819538197971e+04 2.2107336284963316e+04 8.2021458508798648e-15 9.6680606447168229e+03 1.4564629495218422e+04 9.4863956662998510e+02 -999 2.96544140e-01 2.631074112e-01 -1.18872114e-01
 65 3 234820 1.3144561115837085e+04 2.0965018346283628e+04 8.0056333279205178e-15 9.9443568238517273e+03 1.5109539446100596e+04 1.2943509461712688e+03 -999 2.97447919e-01 2.507336784e-01 -1.19058201e-01
 66 3 234820 1.2769790858100361e+04 1.9033760007423843e+04 7.6341902135167209e-15 9.0975585945727616e+03 1.4646810209764533e+04 2.7385429645286008e+03 -999 2.98973761e-01 2.315427847e-01 -1.19867410e-01
 67 3 234820 1.2462563641675299e+04 1.8041723838669172e+04 7.3465894676527777e-15 8.5630303286036378e+03 1.3967494629152590e+04 7.8536870538701278e+03 -999 3.01020715e-01 2.048312713e-01 -1.21812711e-01
 68 3 234820 1.1882701687720963e+04 1.7920575009293621e+04 7.0006838352526722e-15 8.6906066026236167e+03 1.2829292325356242e+04 1.6046273992769704e+04 -999 3.01926073e-01 1.778473901e-01 -1.24938564e-01
 69 3 234820 1.1736103777518849e+04 1.8357117485511615e+04 6.4029124036852183e-15 8.8560009215701357e+03 1.2022432024709255e+04 2.8673390514451592e+04 -999 3.00057406e-01 1.584272194e-01 -1.27702539e-01
 70 3 234820 1.1678474435561695e+04 1.8521375533691018e+04 5.9463227089395495e-15 8.7358035513614886e+03 1.1795922868116573e+04 4.7072707064489958e+04 -999 2.98269480e-01 1.521764799e-01 -1.28426229e-01
 71 3 234820 8.9952973881307553e+03 1.4446218677291747e+04 1.1329672856787304e-13 7.4190167640895515e+03 9.2111688975293291e+03 9.4735487394558804e+04 -999 2.90885011e-01 1.354900964e-01 -1.29342842e-01
 72 3 234820 7.6935805152699731e+03 1.6862025797603921e+04 2.5455292803401663e-13 6.0280102083788533e+03 7.7197425103882852e+03 1.0645752225726131e+05 -999 2.79863091e-01 1.203517228e-01 -1.28080836e-01
 73 3 234820 7.2871481770043702e+03 2.6007489410191538e+04 3.2014563549997190e-13 5.2797086335549275e+03 9.2491613709656831e+03 4.4215628603938654e+04 -999 2.74913169e-01 1.146529682e-01 -1.26511669e-01
 74 3 234820 7.0230344856361316e+03 2.3134208905044630e+04 3.3335251903452386e-13 5.1299378903294819e+03 1.1426961833187028e+04 2.1910118185718267e+04 -999 2.73995232e-01 1.134163266e-01 -1.26112450e-01
 75 3 234820 6.8674394131997415e+03 2.2956278719867361e+04 3.4357674970187033e-13 5.0349191254828020e+03 1.3958204078063955e+04 1.4097805962966759e+04 -999 2.73306810e-01 1.124147378e-01 -1.25786852e-01
 76 3 234820 6.1028519529559871e+03 1.6840542330984492e+04 2.6641300113991970e-13 4.5833033647383818e+03 9.0701543103317908e+03 1.0807959782639522e+04 -999 2.70118159e-01 1.077584680e-01 -1.24247021e-01
 77 3 234820 5.5249911917877625e+03 1.2644465026397873e+04 2.8811996014998767e-13 4.3889101923172075e+03 6.0012671139269587e+03 7.8215677299955441e+03 -999 2.68491891e-01 1.032458524e-01 -1.22783271e-01
 78 3 234820 5.3009110461354849e+03 1.0469653206625353e+04 3.2702135287305961e-13 4.4246513337987881e+03 5.2017093751081766e+03 5.4373775016699838e+03 -999 2.69143924e-01 9.902540935e-02 -1.21697613e-01
 79 3 234820 5.2213360445634489e+03 9.6674201149789715e+03 3.3029191087067693e-13 4.4275706031353075e+03 5.0819210538295474e+03 4.2187639314398539e+03 -999 2.71073028e-01 9.708333447e-02 -1.21559647e-01
 80 3 234820 5.1288002118404338e+03 9.1110430533210329e+03 3.2510469889459906e-13 4.4278510341744086e+03 4.9642040627809138e+03 3.8927451800868193e+03 -999 2.73224946e-01 9.562346059e-02 -1.21654007e-01
 81 3 234820 4.7697741444497533e+03 7.3891715811248923e+03 3.2048966972545031e-13 3.7783452286479151e+03 4.6481345854957444e+03 9.0197739111811206e+03 -999 3.01019347e-01 8.745054013e-02 -1.27728609e-01
 82 3 234820 4.7969757679792447e+03 7.7667490725815260e+03 2.2085961222449525e-13 3.5999604638924488e+03 4.6826193602751755e+03 1.7336977558678387e+04 -999 3.36625059e-01 8.184645055e-02 -1.39017932e-01
 83 3 234820 5.2530014401878007e+03 8.3342389268742972e+03 3.7968472811962136e-13 3.4218131437794668e+03 5.5189392490631390e+03 2.9914752249684363e+04 -999 3.72467073e-01 7.765965248e-02 -1.52228889e-01
 84 3 234820 5.4237240271078626e+03 7.4073762896921198e+03 4.3517076561514703e-13 3.1784060403790299e+03 6.5830983599082838e+03 3.6324662311268410e+04 -999 3.98339600e-01 7.513921475e-02 -1.61957354e-01
 85 3 234820 4.4285581130847322e+03 5.8725905104846806e+03 4.2759963493918863e-13 2.7105762282304859e+03 5.0822281341272401e+03 3.5861840982328838e+04 -999 4.12838394e-01 7.368309261e-02 -1.66975255e-01
 86 3 234820 2.8731031280282682e+03 3.3839087939290571e+03 4.1912685495096657e-13 1.9578793399707704e+03 2.8345373928253807e+03 3.0929109761628235e+04 -999 4.56467313e-01 7.041391969e-02 -1.80697120e-01
 87 3 234820 2.4007872752096928e+03 3.0377116225380287e+03 3.8349184996295547e-13 1.4113144600432206e+03 2.2903180978881755e+03 4.8528915375648954e+04 -999 5.02180011e-01 6.758385961e-02 -1.92051486e-01
 88 3 234820 2.3550953667091499e+03 3.2218199121734278e+03 2.5763193038327970e-13 1.1625784294499140e+03 2.2448071244140510e+03 3.7553382513029996e+04 -999 5.50931833e-01 6.554078111e-02 -2.00926381e-01
 89 3 234820 2.3744294848853860e+03 3.1593675693745067e+03 1.8048331582543191e-13 9.6375663706271075e+02 2.3054298731812883e+03 1.9191014804948612e+04 -999 5.83316041e-01 6.492293512e-02 -2.04746661e-01
 90 3 234820 2.3471011056500365e+03 3.0641189962390072e+03 1.4425619785868232e-13 8.6376421606183294e+02 2.2957380402398471e+03 1.0960484971461903e+04 -999 6.02585184e-01 6.482847588e-02 -2.06320032e-01
 91 3 234820 1.6966959472572810e+03 2.0603448683572374e+03 2.2266039712001980e-13 5.5175524506454440e+02 1.6356533541893161e+03 7.9069919425353764e+03 -999 6.75725001e-01 6.618845246e-02 -2.08214361e-01
 92 3 234820 1.4615323263278324e+03 1.6022006674205224e+03 2.9458635710139390e-13 4.0042116330469338e+02 1.3945154043536772e+03 6.2260969129960049e+03 -999 7.45159119e-01 6.829387661e-02 -2.06214216e-01
 93 3 234820 1.3984167423262104e+03 1.4585447415929029e+03 2.9790496053149014e-13 3.3426766840562289e+02 1.3409377301246618e+03 5.7427803802602029e+03 -999 8.02803738e-01 7.030508350e-02 -2.01657786e-01
 94 3 234820 1.2811680608101067e+03 1.4734276174753993e+03 2.7886131160435180e-13 3.0498079895984370e+02 1.2371786989179145e+03 5.2287909244897319e+03 -999 8.27141093e-01 7.091680866e-02 -1.98942522e-01
 95 3 234820 1.1782390269329212e+03 2.1019577779499750e+03 2.5495234831683703e-13 2.9663238847881956e+02 1.2807849530836204e+03 5.0921163973687435e+03 -999 8.49514288e-01 7.114977879e-02 -1.96339001e-01
 96 3 234820 1.0205011487470085e+03 1.9874936565241937e+03 1.0318307978849980e-12 2.9049286401246053e+02 1.1085386945945800e+03 5.9510162873855816e+03 -999 8.76453161e-01 7.004322703e-02 -1.94153940e-01
 97 3 234820 9.2818492470748265e+02 1.7815688764402746e+03 2.4275299603987260e-12 2.8898644681793263e+02 9.5674667067605844e+02 7.5763865287666476e+03 -999 8.99787494e-01 6.885328828e-02 -1.92275317e-01
 98 3 234820 8.7253168948564758e+02 1.6075004652729101e+03 3.2906139315036152e-12 2.8467493240138793e+02 8.5932120944767826e+02 1.0409151732504026e+04 -999 9.19623163e-01 6.770912081e-02 -1.90676188e-01
 99 3 234820 8.5354949988668864e+02 1.3031634808561573e+03 2.7162033282831764e-12 2.7256922013036427e+02 7.9038658453047867e+02 1.1696915849020965e+04 -999 9.38448698e-01 6.651949663e-02 -1.89066364e-01
 100 3 234820 8.5699008249202097e+02 1.1770483711860070e+03 2.6562877212277338e-12 2.6696708445250744e+02 7.7619229819048394e+02 1.0150493793983769e+04 -999 9.49664612e-01 6.574487139e-02 -1.88009049e-01
 101 3 234820 8.5699008249202097e+02 1.2593478748368052e+03 2.8786878829498262e-12 2.7841612170206531e+02 7.7921189908726319e+02 8.0264728699880552e+03 -999 9.49664612e-01 6.574487139e-02 -1.88009049e-01
 102 3 234820 8.7229564807517488e+02 1.3194434600554937e+03 2.9742278597421119e-12 3.0532158525521533e+02 7.9695171991794871e+02 9.2310766997020128e+03 -999 9.56768798e-01 6.543528562e-02 -1.87820370e-01
 103 3 234820 8.2917582349573934e+02 1.1858906980114593e+03 2.0325715473578145e-12 2.7508079151094540e+02 7.4308262192314987e+02 1.0423033585495170e+04 -999 9.59455710e-01 6.538087325e-02 -1.87657225e-01
 104 3 234820 8.4883844297778410e+02 1.0853014508986337e+03 1.1387860121274219e-12 2.6989912307785494e+02 7.5646904110259504e+02 1.1400718961516663e+04 -999 9.63531882e-01 6.530394335e-02 -1.87487402e-01
 105 3 234820 9.0395353321782977e+02 1.0097728195611180e+03 7.8145405570320503e-13 2.7728318450487399e+02 8.0666853407566543e+02 1.2457558285064088e+04 -999 9.68501281e-01 6.516808821e-02 -1.87289989e-01
 106 3 234820 9.0256805834163049e+02 9.8019898146598791e+02 6.3951581990894809e-13 2.7020039875825171e+02 8.0497404565038164e+02 1.2449750422089239e+04 -999 9.70855149e-01 6.506472323e-02 -1.87207051e-01
 107 3 234820 9.0997870350512983e+02 9.3984865030666731e+02 5.9529956983699818e-13 2.6662931021300517e+02 8.1182010709146471e+02 1.3046176868374901e+04 -999 9.74382929e-01 6.487520071e-02 -1.87051566e-01
 108 3 234820 9.1687791491011615e+02 8.9627734122295556e+02 6.2004315824603161e-13 2.6055665149075480e+02 8.1771808297988400e+02 1.3509574149372538e+04 -999 9.78718049e-01 6.459572268e-02 -1.86845410e-01
 109 3 234820 9.2726721247854493e+02 8.7455742355774657e+02 6.1893847987819630e-13 2.5411780963780166e+02 8.2540046706488079e+02 1.3433526388075858e+04 -999 9.81551904e-01 6.435251363e-02 -1.86633564e-01
 110 3 234820 9.6960255316347502e+02 8.5693294103261701e+02 6.1864157147096243e-13 2.4952268352810262e+02 8.6212467736844167e+02 1.3675523213396937e+04 -999 9.85364066e-01 6.399852582e-02 -1.86316747e-01
 111 3 234820 9.8033124302764702e+02 8.3458359187401174e+02 5.0937267379933463e-13 2.3615247240807864e+02 8.6942441127896973e+02 1.3723709922850441e+04 -999 9.89620272e-01 6.350887107e-02 -1.85772840e-01
 112 3 234820 9.9451431437736210e+02 8.0682589965585953e+02 6.2608601788253254e-13 2.2507574937505848e+02 8.8196811964759399e+02 1.3831179143811982e+04 -999 9.95729369e-01 6.282990366e-02 -1.85077905e-01
 113 3 234820 1.0259974083598529e+03 7.9146286781413414e+02 6.4370994378987507e-13 2.1506531332926730e+02 9.0543025257629347e+02 1.3894961370687490e+04 -999 1.00244470e+00 6.206631760e-02 -1.84294797e-01
 114 3 234820 1.0983417437967046e+03 7.8795136485707678e+02 6.4932684499687967e-13 2.1575383734125850e+02 9.8172901694582561e+02 1.3844538220273029e+04 -999 1.00966294e+00 6.146091368e-02 -1.83999987e-01
 115 3 234820 1.0570029992101556e+03 7.7989292399923340e+02 6.0910934675526201e-13 2.0714037916998191e+02 9.4252983773643462e+02 1.3643032162921680e+04 -999 1.01397501e+00 6.114999477e-02 -1.83935173e-01
 116 3 234820 1.0330333065649704e+03 7.7072932390642154e+02 4.2274527234626948e-13 2.1056136693549249e+02 9.1028975728542662e+02 1.3588403347171927e+04 -999 1.01853211e+00 6.079514010e-02 -1.83831480e-01
 117 3 234820 1.0490859980094776e+03 7.5842181094680132e+02 4.4761237759533163e-13 2.0939019947883151e+02 9.2910168390678234e+02 1.3603665187385377e+04 -999 1.02573455e+00 6.031741715e-02 -1.83829943e-01
 118 3 234820 9.5425746552033479e+02 7.4225287763871938e+02 4.0853109738288309e-13 2.0661622004683730e+02 8.4298780179743426e+02 1.3511586679703794e+04 -999 1.03237229e+00 5.985372240e-02 -1.83756011e-01
 119 3 234820 9.5029472551012941e+02 7.3326136696916012e+02 3.8139706527815393e-13 2.0829095582508003e+02 8.3233007070151075e+02 1.3208940014577940e+04 -999 1.03626812e+00 5.957329615e-02 -1.83657493e-01
 120 3 234820 9.8713524540882327e+02 7.2611130345058859e+02 3.5177383704680137e-13 2.0444857675627114e+02 8.7531275796274349e+02 1.3114807245020047e+04 -999 1.04032494e+00 5.928665527e-02 -1.83519071e-01
 121 3 234820 9.0208379404141181e+02 7.1360530159519351e+02 3.0466681945274479e-13 2.0548050107178557e+02 7.9178582992300369e+02 1.3169109750309448e+04 -999 1.04574199e+00 5.893186448e-02 -1.83247794e-01
 122 3 234820 8.8926062690099843e+02 6.9634877340621358e+02 3.4623728090973760e-13 2.0287337515241492e+02 7.7795447065992141e+02 1.2975567682843508e+04 -999 1.05114195e+00 5.859704273e-02 -1.82904097e-01
 123 3 234820 8.9220836387272857e+02 6.9091481706259754e+02 3.6392195005126171e-13 1.9930924605907114e+02 7.8855125969741016e+02 1.2796360106539441e+04 -999 1.05614859e+00 5.832069361e-02 -1.82550157e-01
 124 3 234820 8.5900339108777825e+02 6.9354735406197983e+02 3.6337283592651948e-13 1.9998356296772312e+02 7.5376789019893920e+02 1.2502623287299117e+04 -999 1.06023149e+00 5.811940744e-02 -1.82234824e-01
 125 3 234820 8.8546671514430125e+02 6.9785382671087575e+02 3.5905752324842952e-13 2.0047318288287511e+02 7.7655217383958029e+02 1.2205635729127975e+04 -999 1.06290271e+00 5.800716853e-02 -1.82034322e-01
 126 3 234820 8.5472718128223039e+02 6.8244921836542665e+02 3.1479821331744408e-13 1.9489601352901340e+02 7.4809798798070801e+02 1.1905955047256595e+04 -999 1.06563215e+00 5.791829002e-02 -1.81862141e-01
 127 3 234820 8.3156847524802481e+02 6.7529080450269169e+02 3.8359294258135073e-13 1.9377731752120948e+02 7.2694581113390984e+02 1.1715261539278958e+04 -999 1.06901657e+00 5.782297594e-02 -1.81669128e-01
 128 3 234820 8.2814094290716423e+02 6.7649190282648249e+02 5.2419021891632615e-13 1.9323240346448554e+02 7.2345489590022294e+02 1.1572952286146738e+04 -999 1.07324708e+00 5.771247231e-02 -1.81423989e-01
 129 3 234820 8.3491992045833092e+02 6.6768627858882178e+02 6.5644465120764021e-13 1.9082139675603699e+02 7.3161229520520249e+02 1.1301514287514665e+04 -999 1.07602647e+00 5.764967123e-02 -1.81274278e-01
 130 3 234820 8.2923904512651325e+02 6.6579845346873867e+02 7.9115124137243788e-13 1.8925697993767457e+02 7.2830378196706727e+02 1.1094056095671451e+04 -999 1.07808627e+00 5.760092103e-02 -1.81155809e-01
 131 3 234820 8.0291361126134655e+02 6.5944743599482740e+02 5.3845114475393044e-13 1.8794823148074752e+02 7.0063060282395634e+02 1.0895398879531624e+04 -999 1.08047660e+00 5.752440486e-02 -1.80962378e-01
 132 3 234820 8.1243681187400887e+02 6.5541825134626981e+02 4.2474121624543318e-13 1.8554518791826143e+02 7.0969162091033024e+02 1.0685965443737006e+04 -999 1.08324689e+00 5.742659880e-02 -1.80713013e-01
 133 3 234820 8.2344840020931701e+02 6.5278392840253775e+02 4.0538885850196029e-13 1.8159452330410065e+02 7.2214714102807341e+02 1.0609582336493524e+04 -999 1.08584996e+00 5.733582807e-02 -1.80493936e-01
 134 3 234820 8.4509091963064179e+02 6.6815847019055718e+02 4.0330774584834399e-13 1.7902621801963863e+02 7.4321204679512016e+02 1.0648026278168229e+04 -999 1.08843689e+00 5.723583956e-02 -1.80270847e-01
 135 3 234820 8.6265306085095119e+02 6.6303885688020114e+02 3.9664473753684566e-13 1.7696542339139003e+02 7.6165161750280447e+02 1.0756767617826037e+04 -999 1.08980036e+00 5.715670703e-02 -1.80099810e-01
 136 3 234820 8.3693510798254079e+02 6.5186441619500033e+02 3.2270822672844032e-13 1.7594732160381835e+02 7.3556434728450745e+02 1.0973124507068111e+04 -999 1.09099789e+00 5.706394972e-02 -1.79899647e-01
 137 3 234820 8.3783688230290966e+02 6.4749856040793679e+02 3.1892834761187696e-13 1.7609029020424015e+02 7.3503320299903226e+02 1.1527565287133169e+04 -999 1.09263540e+00 5.693729054e-02 -1.79634649e-01
 138 3 234820 8.6868027592835676e+02 6.5063386794142377e+02 3.4564292235037874e-13 1.7416597200381855e+02 7.6600717066878735e+02 1.2187603343458659e+04 -999 1.09479851e+00 5.676601279e-02 -1.79290741e-01
 139 3 234820 8.7175786322492752e+02 6.4983118787834326e+02 3.4985029208637413e-13 1.7276038176370099e+02 7.6915296254836369e+02 1.3069882854514981e+04 -999 1.09578170e+00 5.666291219e-02 -1.79088564e-01
 140 3 234820 8.8002291967586905e+02 6.5456757777752478e+02 3.5342214494704253e-13 1.7181588006833994e+02 7.7789363294555039e+02 1.4620389526022913e+04 -999 1.09679250e+00 5.653565719e-02 -1.78837562e-01
 141 3 234820 8.6478797847070916e+02 6.5480300105340405e+02 2.6513866155143755e-13 1.6989220400604680e+02 7.5957520102352703e+02 1.5152718565666424e+04 -999 1.09830282e+00 5.644857162e-02 -1.78710813e-01