TITLE = "005.02 ALPHA 3.10 GRIDLEVEL 2"

VARIABLES = "ITERATION"  "GRID_LEVEL"  "GRID_SIZE"  "CONTINUITY"  "MOMENTUMX"  "MOMENTUMY"  "MOMENTUMZ"  "ENERGY"  "TURB1"  "TURB2"  "CL_TOT"  "CD_TOT"  "CM_TOT"

DATASETAUXDATA ParticipantID   = "005"
DATASETAUXDATA SubmissionDate  = "10-31-2024"
DATASETAUXDATA Name            = "Jeffrey A. Housman"
DATASETAUXDATA Email           = "jeffrey.a.housman@nasa.gov"
DATASETAUXDATA Institution     = "NASA Ames Research Center"
DATASETAUXDATA SolverName      = "LAVA Curvilinear"
DATASETAUXDATA BasicAlgorithm  = "RANS"
DATASETAUXDATA TurbulenceModel = "SA-RC-comp-neg"
DATASETAUXDATA GridId          = "Multiblock"
DATASETAUXDATA Discretization  = "Finite difference"
DATASETAUXDATA Order           = "2"
DATASETAUXDATA DistanceCalc    = "Exact"
DATASETAUXDATA Notes           = " "

ZONE T = "005.02 - Alpha 3.10 - Grid Level 2"
AUXDATA Tstatic         = "271.0"
AUXDATA Deltat          = "-999"
AUXDATA GridFileName    = "ONERA-OAT15A_230mmChord_780mmSpan_upZ_2024_06_25-Structured_23mm_Level-2.x"
AUXDATA Misc            = " "
 0 2 119662 1.7449845205614273e+05 3.5783694979636261e+05 3.0557968596880248e-14 1.5222741463841265e+05 1.7692734160709998e+05 5.1473778918001748e+05 -999 7.85482142e-03 4.528546251e-01 -4.50611209e-03
 1 2 119662 2.3829799750045643e+05 2.8746187770329590e+05 2.7491133124743369e-14 1.2742684469669939e+05 2.3098134598939010e+05 3.3133677339886181e+05 -999 4.55779495e-02 4.469019481e-01 -2.05888872e-02
 2 2 119662 2.8749237373103958e+05 2.5738658541818912e+05 2.5158528876122477e-14 1.4132353801551403e+05 2.7507652920959610e+05 2.1287825800051354e+05 -999 8.68509871e-02 4.522122853e-01 -3.78794626e-02
 3 2 119662 3.3752852461518435e+05 2.3626537120529768e+05 2.3354444395387702e-14 1.6357708891591060e+05 3.2202895582114835e+05 1.3571037450801668e+05 -999 1.22049009e-01 4.619352381e-01 -5.32981974e-02
 4 2 119662 3.8803388259523845e+05 2.1817169544182185e+05 2.1949258064879330e-14 1.9019317150124063e+05 3.7323242376324075e+05 8.5102144226473392e+04 -999 1.52436276e-01 4.742363691e-01 -6.52034689e-02
 5 2 119662 4.3575240396878996e+05 2.1853576924637542e+05 2.0838905744214563e-14 2.1971524427505941e+05 4.2536746149589913e+05 4.2643862712807291e+04 -999 1.76986657e-01 4.870575594e-01 -7.43440400e-02
 6 2 119662 3.9769448922424199e+05 2.5646976464733505e+05 1.9960139290862950e-14 2.3184009780641508e+05 3.9023157053569838e+05 3.4420253588512925e+04 -999 1.94001178e-01 4.929910374e-01 -8.12311935e-02
 7 2 119662 3.9412139253994636e+05 2.7547931593199191e+05 1.9162592574629855e-14 2.3598950654014421e+05 3.8342163349827379e+05 2.8446803921970946e+04 -999 2.07319362e-01 4.943790298e-01 -8.71249703e-02
 8 2 119662 4.2891111632518895e+05 2.7332110344422265e+05 1.8594909973662657e-14 2.3262183178977593e+05 4.3137994134936342e+05 2.4371959482183614e+04 -999 2.17527414e-01 4.900057864e-01 -9.16120381e-02
 9 2 119662 4.4861672525462194e+05 2.5362494312900986e+05 1.8186641689212373e-14 2.3330187900764451e+05 4.5473857330224616e+05 2.1592822620913445e+04 -999 2.27345777e-01 4.821579328e-01 -9.54654880e-02
 10 2 119662 4.6413486733137508e+05 2.5063950834809642e+05 1.7987519536707609e-14 2.2721163460449546e+05 4.8078826493655314e+05 1.9297485190564170e+04 -999 2.34345845e-01 4.761105849e-01 -9.80007508e-02
 11 2 119662 3.8387588145035534e+05 2.1611254993793686e+05 1.7780682529046778e-14 2.0920079274212001e+05 3.9176118733885715e+05 1.7274450467757775e+04 -999 2.42615549e-01 4.686384255e-01 -1.01036122e-01
 12 2 119662 3.6276752601456386e+05 2.1822849134008773e+05 1.7636291878880328e-14 2.0133630801235684e+05 3.6506589637413254e+05 1.5678762879507412e+04 -999 2.49160079e-01 4.626537552e-01 -1.03411096e-01
 13 2 119662 3.4407247155103774e+05 1.9245082307237721e+05 1.7593599182416419e-14 1.9139473880797080e+05 3.4306251571875776e+05 1.4368259652773997e+04 -999 2.54280979e-01 4.574729661e-01 -1.05328624e-01
 14 2 119662 3.7653786464980774e+05 2.0119318446015049e+05 1.7601958262439464e-14 1.8923876885777336e+05 3.8768697638918954e+05 1.3210309401140747e+04 -999 2.57794612e-01 4.532376496e-01 -1.06722074e-01
 15 2 119662 3.4128447106899682e+05 1.6957962015874687e+05 1.7569008387731875e-14 1.7844171249456899e+05 3.4757669826679060e+05 1.2250967394582625e+04 -999 2.60262544e-01 4.496776893e-01 -1.07779175e-01
 16 2 119662 3.1822940771853743e+05 1.7686750712126400e+05 1.7460655773422800e-14 1.7116411433741043e+05 3.2456470934572676e+05 1.1171061250106301e+04 -999 2.62413962e-01 4.459485384e-01 -1.08763893e-01
 17 2 119662 2.8314960700401326e+05 1.6938786081836306e+05 1.7334510041195007e-14 1.5729197570071192e+05 2.8859693392641254e+05 1.0285805112157181e+04 -999 2.64580729e-01 4.418164656e-01 -1.09773226e-01
 18 2 119662 2.9394270055172523e+05 1.6470261517546282e+05 1.7228003951252945e-14 1.5383093327882196e+05 2.9904107144115499e+05 9.5274743131289160e+03 -999 2.67090288e-01 4.366126581e-01 -1.10920250e-01
 19 2 119662 2.6626513176453672e+05 1.4630379797289049e+05 1.7113555419345068e-14 1.4261374320268127e+05 2.7113249303124222e+05 8.8706152471686037e+03 -999 2.68577048e-01 4.331441315e-01 -1.11555075e-01
 20 2 119662 3.1102695327916718e+05 1.7195035721437875e+05 1.6995608688304050e-14 1.4831952512717727e+05 3.2628168958746159e+05 8.3114237155660885e+03 -999 2.70210469e-01 4.289088553e-01 -1.12214129e-01
 21 2 119662 2.5828463034164565e+05 1.5883862121742984e+05 1.6857444772697101e-14 1.3269099076753401e+05 2.7357649582065007e+05 7.6629846334433578e+03 -999 2.71287764e-01 4.252704297e-01 -1.12616682e-01
 22 2 119662 2.1710009232509742e+05 1.2996617724223528e+05 1.6693937131718940e-14 1.1938925449380858e+05 2.2218318731569932e+05 7.0890364271729868e+03 -999 2.72441616e-01 4.208262661e-01 -1.13036175e-01
 23 2 119662 1.9965662195014954e+05 1.2476785189629739e+05 1.6540867249410621e-14 1.1119337300730302e+05 2.0145543569558469e+05 6.5888352131172451e+03 -999 2.73360804e-01 4.167605489e-01 -1.13363811e-01
 24 2 119662 2.2701495533920775e+05 1.2739212423032879e+05 1.6418924025661196e-14 1.1049735770054559e+05 2.3622154853948738e+05 6.1580887986570015e+03 -999 2.74188108e-01 4.127290002e-01 -1.13655620e-01
 25 2 119662 2.0377720424593429e+05 1.0616911111549598e+05 1.6343487976227348e-14 1.0283069617140562e+05 2.1031196186055310e+05 5.7884311075744354e+03 -999 2.74725345e-01 4.098710426e-01 -1.13844445e-01
 26 2 119662 1.8255033970069708e+05 1.0718543569584726e+05 1.6196870649101885e-14 9.6130035689097786e+04 1.8944267989327427e+05 5.3350709161760515e+03 -999 2.75217395e-01 4.067152925e-01 -1.14012588e-01
 27 2 119662 1.5646754094556201e+05 1.0100747785092409e+05 1.6007328244581061e-14 8.6615226086836483e+04 1.6174107455320228e+05 4.9387725767310503e+03 -999 2.75763697e-01 4.029970525e-01 -1.14201244e-01
 28 2 119662 1.4693089783458368e+05 9.4523250298097235e+04 1.5810165941215287e-14 7.9719576590297132e+04 1.4961180336565629e+05 4.5954467354561939e+03 -999 2.76294328e-01 3.991468957e-01 -1.14388216e-01
 29 2 119662 1.5683972890174619e+05 9.1155085343485320e+04 1.5617640424622090e-14 7.7169311229197003e+04 1.6073273643859252e+05 4.2936213927963463e+03 -999 2.76762154e-01 3.955344483e-01 -1.14556539e-01
 30 2 119662 1.4913886755708043e+05 8.5079770648707985e+04 1.5483478042662039e-14 7.2973872970986893e+04 1.5569793684357774e+05 4.0324833174968562e+03 -999 2.77061145e-01 3.930826965e-01 -1.14665100e-01
 31 2 119662 1.2777274093320692e+05 7.9275694019964561e+04 1.5292134405097983e-14 6.6751889405789087e+04 1.3407696979815463e+05 3.7282773248236981e+03 -999 2.77352203e-01 3.902051250e-01 -1.14766717e-01
 32 2 119662 1.0671702254778975e+05 7.4985881009510442e+04 1.5052675945830475e-14 5.9963457108282913e+04 1.1063054672447566e+05 3.4534566704570152e+03 -999 2.77686729e-01 3.867873930e-01 -1.14883371e-01
 33 2 119662 9.8446643144161135e+04 7.0715559702926199e+04 1.4806827609827350e-14 5.4784862909116018e+04 1.0000747354589053e+05 3.2137367110131859e+03 -999 2.78007720e-01 3.833742199e-01 -1.14995495e-01
 34 2 119662 1.0723307660209564e+05 7.0528614734756135e+04 1.4586945172995867e-14 5.2818090610824038e+04 1.1086721035028456e+05 3.0039902432488711e+03 -999 2.78287244e-01 3.802770420e-01 -1.15093154e-01
 35 2 119662 1.0368025230865352e+05 6.4681585336427153e+04 1.4417333450180011e-14 5.0610991331271405e+04 1.0678898373573832e+05 2.8239610397740398e+03 -999 2.78491537e-01 3.779253957e-01 -1.15164121e-01
 36 2 119662 8.8831144008596559e+04 6.3428158086228199e+04 1.4217992369943207e-14 4.6234202117817193e+04 9.3476985891243137e+04 2.6116394374436295e+03 -999 2.78669797e-01 3.754295431e-01 -1.15221692e-01
 37 2 119662 7.1955906103688845e+04 5.8024241333587175e+04 1.3985319462382903e-14 4.1057488061337899e+04 7.5572106849376738e+04 2.4217586012459992e+03 -999 2.78875051e-01 3.725540068e-01 -1.15287957e-01
 38 2 119662 6.3016769724453137e+04 5.3040206583970823e+04 1.3709852377456875e-14 3.6700139571398489e+04 6.3952166751950252e+04 2.2501476207883966e+03 -999 2.79101245e-01 3.693908335e-01 -1.15361063e-01
 39 2 119662 6.5944219311852823e+04 5.1493910717248677e+04 1.3442116862298979e-14 3.4567951402798637e+04 6.7598805070839342e+04 2.0979066614608801e+03 -999 2.79314329e-01 3.664110523e-01 -1.15430169e-01
 40 2 119662 6.5604682010977238e+04 4.9974043617577750e+04 1.3250305502566080e-14 3.3166506684801076e+04 6.8192322951226291e+04 1.9675434226013158e+03 -999 2.79470347e-01 3.642125152e-01 -1.15481053e-01
 41 2 119662 5.5896772872216388e+04 4.7324250813217659e+04 1.3039952819642644e-14 3.0482443030415707e+04 5.9133428022567903e+04 1.8012744184345584e+03 -999 2.79606101e-01 3.619047490e-01 -1.15522627e-01
 42 2 119662 4.4537714966210937e+04 4.4551108018446663e+04 1.2781268192295078e-14 2.7388031761018992e+04 4.6968776653329645e+04 1.6505583004975304e+03 -999 2.79772428e-01 3.591123132e-01 -1.15574181e-01
 43 2 119662 3.8071095831609651e+04 4.1655586232254325e+04 1.2487510375163747e-14 2.4659468758017018e+04 3.8757923897780325e+04 1.5211798108859423e+03 -999 2.79957100e-01 3.560469817e-01 -1.15632067e-01
 44 2 119662 3.8110720807139507e+04 4.0241315946083276e+04 1.2219584779377514e-14 2.3128899016199673e+04 3.8898196222177517e+04 1.4104153574933785e+03 -999 2.80123346e-01 3.533033232e-01 -1.15684854e-01
 45 2 119662 3.9512747233234855e+04 4.0144658491415808e+04 1.1996845754112954e-14 2.2272439593725936e+04 4.1256903839780534e+04 1.3130053690188240e+03 -999 2.80263640e-01 3.509814286e-01 -1.15730209e-01
 46 2 119662 3.3713544755954907e+04 3.7710170680853393e+04 1.1776578707698529e-14 2.0825182887260180e+04 3.5603069162170272e+04 1.1858114619253129e+03 -999 2.80378492e-01 3.486892304e-01 -1.15765219e-01
 47 2 119662 2.7427857341603452e+04 3.5570466859226850e+04 1.1509069902942462e-14 1.9232607765793873e+04 2.8737219887418385e+04 1.0761939746628507e+03 -999 2.80518063e-01 3.459390112e-01 -1.15808385e-01
 48 2 119662 2.3248287567418673e+04 3.3695129451974550e+04 1.1211392633012976e-14 1.7714509979908344e+04 2.3519245516597453e+04 9.8032040618461770e+02 -999 2.80680269e-01 3.427733963e-01 -1.15859316e-01
 49 2 119662 2.2188899958829341e+04 3.2373423605377542e+04 1.0930617417309146e-14 1.6647166126643751e+04 2.2181884977486996e+04 8.9993616418067097e+02 -999 2.80834776e-01 3.397615929e-01 -1.15908881e-01
 50 2 119662 2.1937095320884790e+04 3.1521796105820282e+04 1.0670042181987413e-14 1.5898053143369105e+04 2.2136919011056070e+04 8.3164765720103742e+02 -999 2.80969262e-01 3.371101364e-01 -1.15953438e-01
 51 2 119662 1.9576210182452989e+04 3.0208509235407542e+04 1.0423152270695326e-14 1.5051627901045869e+04 1.9789947884827445e+04 7.5006932858642949e+02 -999 2.81071455e-01 3.344794109e-01 -1.15982591e-01
 52 2 119662 1.7069349279036815e+04 2.8819387443712691e+04 1.0138703506274611e-14 1.4078400601174299e+04 1.7076520358249702e+04 6.7673142187184590e+02 -999 2.81191548e-01 3.313079335e-01 -1.16015574e-01
 53 2 119662 1.5220070215575310e+04 2.7401483601893829e+04 9.8012455151769862e-15 1.3042947646205894e+04 1.4957890506470450e+04 6.2157292883227296e+02 -999 2.81326169e-01 3.275927598e-01 -1.16050158e-01
 54 2 119662 1.4287886832472619e+04 2.6210678815527594e+04 9.4567182162198628e-15 1.2149665772625411e+04 1.4011497863756567e+04 5.7426187639176919e+02 -999 2.81449057e-01 3.239420879e-01 -1.16078617e-01
 55 2 119662 1.3725447120924615e+04 2.5257927897099875e+04 9.1759433870769958e-15 1.1421580940706333e+04 1.3598444414018948e+04 5.3842119078824999e+02 -999 2.81550131e-01 3.206217991e-01 -1.16099197e-01
 56 2 119662 1.2630772724800299e+04 2.4174254293951395e+04 8.8797444548626942e-15 1.0668206428283856e+04 1.2631325510969133e+04 5.0501662801602339e+02 -999 2.81605144e-01 3.170422424e-01 -1.16083007e-01
 57 2 119662 1.1519976147665620e+04 2.2950473222594967e+04 8.5440953844142607e-15 9.8044191742338680e+03 1.1674838480895847e+04 4.8540308893367222e+02 -999 2.81659701e-01 3.125398701e-01 -1.16046738e-01
 58 2 119662 1.0694235221353578e+04 2.1702124384467887e+04 8.1838362377621278e-15 8.9459955989524460e+03 1.1076179735360916e+04 4.7555318129635407e+02 -999 2.81703556e-01 3.073051609e-01 -1.15981640e-01
 59 2 119662 1.0244709273410908e+04 2.0650434705515254e+04 7.8358043476590640e-15 8.2807822976666866e+03 1.0896593617578235e+04 4.8342881830565790e+02 -999 2.81727889e-01 3.021926526e-01 -1.15894480e-01
 60 2 119662 1.0034438730647522e+04 1.9792479927069206e+04 7.5531437600034714e-15 7.8115938565665183e+03 1.0940830206156932e+04 4.7979844862669961e+02 -999 2.81739031e-01 2.973632284e-01 -1.15794651e-01
 61 2 119662 9.6245275769560831e+03 1.8824566969555093e+04 7.2496895884361430e-15 7.3513639496356409e+03 1.0799824398830040e+04 4.9024254122570784e+02 -999 2.81710005e-01 2.915358167e-01 -1.15609854e-01
 62 2 119662 9.4210625631411785e+03 1.7763189721626411e+04 6.9392325779004152e-15 7.0246598026820384e+03 1.0836549986069143e+04 5.2000991543622456e+02 -999 2.81702515e-01 2.839106968e-01 -1.15347175e-01
 63 2 119662 9.5275021364660770e+03 1.6785477425234552e+04 6.6617481977130971e-15 6.9669401042683512e+03 1.1094506329447462e+04 5.5189833914933604e+02 -999 2.81764184e-01 2.751211167e-01 -1.15035129e-01
 64 2 119662 9.7879443340715752e+03 1.6029207344127208e+04 6.4682021896797438e-15 7.1027505752849193e+03 1.1419416434335655e+04 5.6816795114881938e+02 -999 2.81934313e-01 2.665529117e-01 -1.14754473e-01
 65 2 119662 1.0038930272864785e+04 1.5417812286077684e+04 6.3150061188774312e-15 7.3046624544622200e+03 1.1683427223177332e+04 5.8196623885831036e+02 -999 2.82176198e-01 2.582896592e-01 -1.14562890e-01
 66 2 119662 1.0084864564806338e+04 1.4560090962078642e+04 6.1734935096538323e-15 7.1448684951755777e+03 1.1695354856190135e+04 6.1791022147135811e+02 -999 2.82833222e-01 2.471648500e-01 -1.14464118e-01
 67 2 119662 1.0090415406253374e+04 1.3706270351179117e+04 6.0906301308483719e-15 6.9661521169302978e+03 1.1571674406987757e+04 7.3155688161534920e+02 -999 2.84208531e-01 2.321260622e-01 -1.14620555e-01
 68 2 119662 9.9552050616601173e+03 1.3210334329879566e+04 5.9752803410660953e-15 6.7717419081132739e+03 1.1255283761095528e+04 1.0423368830973134e+03 -999 2.86251814e-01 2.168421537e-01 -1.15281979e-01
 69 2 119662 9.7014188722729796e+03 1.3014825535668360e+04 5.8442550409340462e-15 6.6322497672806066e+03 1.0811732535282685e+04 1.8279385291493359e+03 -999 2.88636499e-01 2.027249306e-01 -1.16490005e-01
 70 2 119662 9.3711163514255568e+03 1.3059961551137179e+04 5.6215594327336467e-15 6.6129752221950057e+03 1.0269897937560509e+04 2.9548206759422546e+03 -999 2.91089702e-01 1.893885667e-01 -1.18239104e-01
 71 2 119662 8.5247976683237557e+03 1.2039161985443418e+04 5.2728997904346728e-15 6.5986191148004918e+03 9.1044734143056030e+03 4.9195449745279466e+03 -999 2.94101345e-01 1.695666505e-01 -1.21868572e-01
 72 2 119662 7.6172418912214152e+03 1.1264854722299455e+04 4.8460013499905195e-15 6.5777219750181712e+03 7.9382198918525173e+03 6.5174243517948025e+03 -999 2.94613836e-01 1.516120236e-01 -1.25930195e-01
 73 2 119662 6.9571067476934031e+03 1.0679187116226278e+04 4.3969783821077024e-15 6.6147683102171595e+03 7.1337938263306241e+03 9.2116946624617249e+03 -999 2.91212948e-01 1.372247334e-01 -1.29034722e-01
 74 2 119662 6.5787595435063986e+03 1.0714815791516452e+04 4.0154875566144998e-15 6.1394481523903169e+03 6.6980270555108673e+03 1.3397843726773286e+04 -999 2.85708930e-01 1.284280446e-01 -1.30046276e-01
 75 2 119662 6.4142876231601640e+03 1.0847349109560253e+04 3.7785862110209024e-15 5.6593689993635862e+03 6.4575175548046745e+03 1.4962631106811865e+04 -999 2.82757648e-01 1.252381868e-01 -1.29979269e-01
 76 2 119662 5.5152152207467843e+03 1.0384247073139186e+04 1.7383999685647809e-14 4.8467796768988037e+03 5.5418655065408238e+03 1.5133034242233498e+04 -999 2.75158774e-01 1.187151135e-01 -1.28989651e-01
 77 2 119662 4.8083407941691494e+03 1.0566690913281729e+04 6.7811746063972661e-14 4.1044300353998860e+03 4.8017168320310939e+03 1.2688386957353645e+04 -999 2.65349039e-01 1.112509678e-01 -1.26730073e-01
 78 2 119662 4.3719066193732097e+03 1.0073931852581360e+04 1.3342921979485189e-13 3.5285377917423370e+03 4.3730938585952381e+03 9.2340786789060439e+03 -999 2.59143980e-01 1.060545929e-01 -1.24322911e-01
 79 2 119662 4.1892679241650421e+03 9.3600808894966740e+03 1.6960494107984079e-13 3.3573561826618584e+03 4.1804686576862314e+03 6.4828281517334444e+03 -999 2.57488052e-01 1.037725669e-01 -1.23213082e-01
 80 2 119662 4.1395044206205694e+03 8.7302469610493063e+03 2.0407888455329419e-13 3.3580772045790500e+03 4.0893511080384123e+03 4.7297412327173151e+03 -999 2.56712729e-01 1.016427949e-01 -1.22278440e-01
 81 2 119662 3.6688712373194230e+03 7.3899540249549282e+03 1.8317772560074121e-13 3.3518765278119076e+03 3.6016129766992553e+03 3.6768143155963685e+03 -999 2.58349898e-01 9.780561192e-02 -1.21205152e-01
 82 2 119662 3.5298574266212231e+03 6.2046612050041986e+03 1.5572138800917840e-13 3.4890950418204889e+03 3.4009355689118133e+03 3.9295945926292193e+03 -999 2.65976253e-01 9.266605891e-02 -1.21212017e-01
 83 2 119662 3.8306097073638994e+03 5.9775279025697173e+03 1.3299264826355515e-13 3.5416509344410570e+03 3.6560679444986413e+03 5.2313968680445469e+03 -999 2.78136280e-01 8.875492215e-02 -1.23344804e-01
 84 2 119662 4.0676595549951794e+03 6.2900739976499999e+03 1.1831200519215961e-13 3.5213649124548970e+03 3.9080349138192551e+03 5.7322765481549404e+03 -999 2.88498238e-01 8.626062094e-02 -1.25935190e-01
 85 2 119662 4.1869049997898364e+03 6.8046988179782184e+03 1.0705262378016546e-13 3.4615364292557651e+03 4.0104123279422333e+03 6.5617443381046432e+03 -999 2.98019674e-01 8.425504094e-02 -1.28702759e-01
 86 2 119662 3.7780768580172326e+03 5.6538547871658693e+03 8.9986680231084655e-14 3.0838714999636832e+03 3.8213206400770837e+03 1.4457229229657682e+04 -999 3.20984745e-01 8.053859420e-02 -1.36470181e-01
 87 2 119662 3.4982597703919682e+03 5.4953531423779987e+03 8.5301199333827702e-14 2.8232547228192393e+03 3.7061615559119100e+03 1.2255489592133683e+04 -999 3.42886867e-01 7.752565503e-02 -1.45134037e-01
 88 2 119662 3.3385822503397221e+03 6.9632796585057731e+03 8.3106908342641293e-14 2.6155530419563615e+03 4.3563866223020959e+03 8.3604696895623601e+03 -999 3.59074615e-01 7.545331821e-02 -1.52088595e-01
 89 2 119662 3.0011467771953958e+03 6.3917371986783673e+03 8.0438504476537557e-14 2.4753153730593581e+03 4.1230034973167367e+03 5.3287681149871596e+03 -999 3.67000293e-01 7.446170765e-02 -1.55515075e-01
 90 2 119662 2.7577604419843387e+03 5.6766762729144120e+03 7.7813022613981219e-14 2.3715320217276812e+03 3.1891450939615056e+03 5.1638299177063554e+03 -999 3.73329131e-01 7.368505031e-02 -1.58203655e-01
 91 2 119662 2.3281992597826138e+03 2.5964511777819025e+03 2.2079277849929410e-13 2.0202490143014886e+03 2.1607983442906880e+03 6.1227445936617742e+03 -999 3.97961351e-01 7.088764304e-02 -1.68303998e-01
 92 2 119662 2.1112212669457044e+03 2.4469977759450480e+03 8.7459606139813542e-13 1.8277666827197254e+03 1.9730797492566842e+03 7.2305299257342203e+03 -999 4.23614784e-01 6.836724560e-02 -1.77835838e-01
 93 2 119662 1.9659433605549659e+03 2.4553814721049985e+03 1.2006560815330624e-12 1.6583327735819855e+03 1.8771997543127209e+03 8.7130074519089903e+03 -999 4.51268369e-01 6.608748539e-02 -1.86628032e-01
 94 2 119662 1.9749233108888898e+03 2.5543884382105598e+03 1.1624018714532396e-12 1.4470241919024088e+03 1.9109759551884661e+03 1.1060733102171052e+04 -999 4.81113897e-01 6.416545326e-02 -1.94378706e-01
 95 2 119662 2.1567227144848175e+03 2.6296387452581675e+03 9.7592697969275993e-13 1.2148433166550988e+03 2.1263671917386300e+03 1.2907563231698712e+04 -999 5.12745833e-01 6.267076007e-02 -2.00795934e-01
 96 2 119662 1.6892990273868686e+03 2.1587722656663623e+03 2.8996741140203328e-12 7.7380113977795236e+02 1.6336808070889936e+03 1.1922269336689120e+04 -999 5.55441244e-01 6.178133552e-02 -2.05670479e-01
 97 2 119662 1.5719753546511176e+03 1.7077845570667421e+03 1.9816420767382538e-12 5.3817539666682706e+02 1.5325835917656721e+03 9.3691613720900332e+03 -999 6.05412996e-01 6.181567001e-02 -2.09138947e-01
 98 2 119662 1.6215322691563988e+03 1.4323234874989089e+03 1.7629417583318282e-12 4.2712215037048907e+02 1.6098231712605145e+03 7.1579629798918950e+03 -999 6.51782431e-01 6.293213023e-02 -2.10288768e-01
 99 2 119662 1.8773862845789113e+03 1.3755883545734812e+03 1.6454889167478338e-12 3.7030486421654615e+02 1.9012550848464643e+03 5.6884562005417056e+03 -999 6.91474289e-01 6.461458209e-02 -2.09626721e-01
 100 2 119662 2.0276059239456126e+03 1.3505321750458018e+03 1.6625297057723612e-12 3.3809206073454351e+02 2.0662449495476249e+03 4.7482054587214297e+03 -999 7.16192792e-01 6.599062834e-02 -2.08269003e-01
 101 2 119662 1.1388959425906462e+03 1.0424454774517324e+03 1.2937048319999899e-12 3.0720606792304392e+02 1.1035766031098042e+03 4.2370130790012736e+03 -999 7.78769581e-01 6.951255132e-02 -2.02540940e-01
 102 2 119662 8.7748453838778016e+02 8.9797036984761110e+02 1.3725620083424942e-12 2.3966792885983750e+02 8.3035058300629805e+02 4.2574938284567179e+03 -999 8.28714052e-01 7.105254602e-02 -1.95968696e-01
 103 2 119662 7.5520367519914669e+02 7.8279001934664745e+02 1.2742660053198034e-12 1.8843399335486410e+02 6.9673813002773625e+02 4.3623315018819339e+03 -999 8.68516753e-01 7.025039229e-02 -1.90973916e-01
 104 2 119662 6.9137685983346842e+02 7.3277316681572165e+02 1.1777407113216002e-12 1.7957635180380893e+02 6.2570853646565854e+02 4.1406903499262253e+03 -999 8.87263393e-01 6.856223314e-02 -1.89352219e-01
 105 2 119662 6.5345867612049517e+02 7.0581527125185755e+02 1.1138681083917908e-12 1.7701741552254984e+02 5.8471929945523482e+02 4.1209501374612055e+03 -999 9.02031191e-01 6.685055222e-02 -1.88363482e-01
 106 2 119662 6.0952791423805741e+02 8.7569605100297929e+02 1.1782023338654919e-12 1.7916776365646882e+02 5.4541535442083295e+02 6.2138591690866260e+03 -999 9.19949619e-01 6.504307784e-02 -1.87640053e-01
 107 2 119662 5.8061591536637661e+02 1.0475697455012287e+03 1.2621323899598905e-12 1.8249219796201442e+02 5.2236749304161162e+02 9.4671876705350878e+03 -999 9.37377645e-01 6.337826965e-02 -1.86737855e-01
 108 2 119662 5.6492860206083571e+02 9.7577574625433613e+02 1.4060386871176151e-12 1.7977503288387032e+02 5.0453402795206358e+02 1.6601938228071693e+04 -999 9.53694315e-01 6.187913109e-02 -1.85708487e-01
 109 2 119662 5.6688493439200431e+02 8.2887072507999460e+02 1.5301336607323059e-12 1.7544017060187554e+02 5.0367990881630061e+02 2.4103844271977632e+04 -999 9.68477839e-01 6.055465685e-02 -1.84630558e-01
 110 2 119662 5.9049164252019659e+02 9.7854412794832979e+02 1.5822718658133618e-12 1.7396392707863183e+02 5.3249814040912895e+02 2.9331388559127525e+04 -999 9.79224588e-01 5.959016805e-02 -1.83683530e-01
 111 2 119662 5.9049164252019659e+02 1.0499494003300240e+03 1.5968827666010905e-12 1.7763829389026611e+02 5.3568129658196494e+02 1.8690129821125051e+04 -999 9.79224588e-01 5.959016805e-02 -1.83683530e-01
 112 2 119662 5.9828739147515034e+02 1.1233856884324509e+03 1.5918023265611954e-12 1.9180070660877519e+02 5.4705331885465603e+02 1.1643638325263360e+04 -999 9.81910367e-01 5.907101636e-02 -1.83125951e-01
 113 2 119662 5.9965559203761677e+02 9.1735407761932242e+02 1.1575450875825769e-12 1.7593569827603687e+02 5.3713923545260525e+02 7.5840248444410554e+03 -999 9.83862370e-01 5.887692104e-02 -1.83025794e-01
 114 2 119662 6.8106603114075369e+02 7.5166148505804097e+02 7.3984948761343616e-13 1.7723289249158654e+02 6.0743418514665348e+02 9.9509008331930581e+03 -999 9.86711862e-01 5.859139843e-02 -1.82898031e-01
 115 2 119662 7.9551525711481918e+02 6.5970721436079486e+02 4.8162684482606114e-13 1.8546013073855869e+02 7.2034589998071579e+02 7.7988834256259224e+03 -999 9.90609358e-01 5.818846529e-02 -1.82724009e-01
 116 2 119662 7.8177608402618159e+02 6.3721876759045381e+02 3.7517344417532924e-13 1.8163572470557685e+02 7.0738523378806474e+02 6.6987493308577132e+03 -999 9.92389408e-01 5.800029848e-02 -1.82648440e-01
 117 2 119662 7.6990333710291793e+02 6.1372943088533532e+02 3.0878092988431275e-13 1.8250793606440794e+02 6.9475941068700740e+02 7.5880870278586372e+03 -999 9.94869755e-01 5.773786198e-02 -1.82539557e-01
 118 2 119662 7.8482961617812657e+02 5.8706324024525190e+02 2.9196054933743587e-13 1.8544420543508411e+02 7.0688774502757906e+02 8.1405389609738259e+03 -999 9.98742604e-01 5.731075630e-02 -1.82318929e-01
 119 2 119662 8.0467997844255729e+02 5.7119070884398332e+02 2.7576556349838121e-13 1.8189188195968688e+02 7.2821985148039880e+02 8.0903685027365564e+03 -999 1.00115541e+00 5.701889763e-02 -1.82107685e-01
 120 2 119662 8.0814922385448153e+02 5.5783396005537440e+02 2.5460850274416038e-13 1.7759028085449873e+02 7.3607469588148615e+02 8.2558721948636648e+03 -999 1.00366059e+00 5.667832712e-02 -1.81786177e-01
 121 2 119662 7.7797550255525630e+02 5.4346535018412817e+02 1.9729809112005648e-13 1.7087859980995333e+02 7.0178772584639751e+02 8.2403436496503000e+03 -999 1.00730489e+00 5.622606049e-02 -1.81323897e-01
 122 2 119662 8.0592753886161813e+02 5.2913806553513075e+02 2.2035438800225193e-13 1.6081467532917918e+02 7.2715120295733209e+02 8.1904065894106488e+03 -999 1.01183058e+00 5.569091694e-02 -1.80738825e-01
 123 2 119662 8.0534621902842628e+02 5.1583925566843106e+02 2.3512787558778151e-13 1.4678381332638099e+02 7.3620330937335063e+02 8.1502328513229504e+03 -999 1.01697473e+00 5.517507125e-02 -1.80196080e-01
 124 2 119662 7.7707530726515472e+02 5.1373889724459889e+02 2.4151870249542430e-13 1.4696877395077362e+02 6.9639751167760346e+02 8.0973106069714977e+03 -999 1.02192375e+00 5.470036231e-02 -1.79594789e-01
 125 2 119662 8.5123134336072667e+02 5.1523848696539483e+02 2.3754441307595377e-13 1.4618011040433998e+02 7.7197087955213010e+02 7.9559157943098171e+03 -999 1.02521076e+00 5.440927199e-02 -1.79169951e-01
 126 2 119662 7.6180624675950355e+02 4.9944520461838312e+02 1.9791522741047802e-13 1.3836347901066193e+02 6.8660562281949046e+02 7.8912078307917218e+03 -999 1.02885935e+00 5.415700081e-02 -1.78816383e-01
 127 2 119662 7.0943981962367866e+02 4.8865479200791026e+02 2.8109795171719152e-13 1.3560275186769394e+02 6.3117900838241121e+02 7.9072519280072356e+03 -999 1.03395330e+00 5.389679933e-02 -1.78445101e-01
 128 2 119662 7.2164215606378457e+02 4.8476392512773589e+02 3.6255418743271428e-13 1.3215683011949511e+02 6.5252035026384704e+02 7.8174630733011345e+03 -999 1.04085020e+00 5.364331787e-02 -1.78056182e-01
 129 2 119662 6.6492836153460894e+02 4.7647382995350023e+02 3.7227721180063299e-13 1.2990430579044715e+02 5.9512668384649396e+02 7.4685121534985083e+03 -999 1.04350453e+00 5.357046619e-02 -1.77902888e-01
 130 2 119662 6.6157639532314647e+02 4.7482507805429634e+02 3.9046779181440922e-13 1.2828136142920087e+02 5.8548126405542166e+02 7.4079582731106193e+03 -999 1.04649592e+00 5.349475659e-02 -1.77715880e-01
 131 2 119662 6.4019672990296294e+02 4.7141496799688838e+02 2.6918578454188866e-13 1.2205839291034046e+02 5.6386755875623453e+02 7.4084276519923942e+03 -999 1.05148658e+00 5.348030880e-02 -1.77702835e-01
 132 2 119662 6.2160000223719203e+02 4.6310095442435244e+02 2.3015284598580266e-13 1.1950676537467427e+02 5.4645138086970223e+02 7.2391243718267560e+03 -999 1.05667912e+00 5.346245089e-02 -1.77683061e-01
 133 2 119662 6.2554562992687863e+02 4.5708206051866949e+02 2.1395081246117436e-13 1.1824274865770663e+02 5.5083916192021445e+02 7.0973522872650428e+03 -999 1.06103893e+00 5.340727204e-02 -1.77563243e-01
 134 2 119662 6.3413246063199517e+02 4.6052030564671441e+02 2.0531149761911241e-13 1.1680636834216665e+02 5.6528471570187992e+02 7.0318675194980442e+03 -999 1.06505824e+00 5.330817773e-02 -1.77340803e-01
 135 2 119662 6.2606586443969570e+02 4.5228427899540185e+02 2.0370340854920892e-13 1.1674162621504351e+02 5.5196862895091931e+02 6.9693936367053975e+03 -999 1.06690030e+00 5.322461421e-02 -1.77145498e-01
 136 2 119662 6.0464725811178698e+02 4.4318666343142974e+02 1.8216833049012072e-13 1.1525705156726804e+02 5.2999600007974141e+02 7.0102021743507348e+03 -999 1.06944104e+00 5.311678550e-02 -1.76913838e-01
 137 2 119662 5.9859511461819238e+02 4.3774455799939443e+02 2.5549992800070590e-13 1.1232757350006349e+02 5.2463847187408169e+02 7.0459260902255019e+03 -999 1.07295092e+00 5.299945947e-02 -1.76711988e-01
 138 2 119662 6.0217066916378690e+02 4.3296143630935364e+02 2.9928178630152579e-13 1.0858456996953166e+02 5.2965868262700872e+02 7.3195718420164376e+03 -999 1.07601201e+00 5.289447677e-02 -1.76568044e-01
 139 2 119662 5.8765677840197259e+02 4.3203665861823492e+02 3.2139023210399127e-13 1.0712530022137115e+02 5.1526788380420498e+02 7.4293675607817622e+03 -999 1.07816826e+00 5.280430597e-02 -1.76451460e-01
 140 2 119662 6.0927341308877453e+02 4.4219720130671749e+02 3.3878854496746540e-13 1.0727308443841081e+02 5.3583104300171351e+02 7.4528644298925010e+03 -999 1.08019147e+00 5.270550970e-02 -1.76321435e-01
 141 2 119662 5.7762648757631212e+02 4.3131836157346709e+02 2.5389800355619220e-13 1.0727077720143470e+02 5.0401442557403590e+02 8.8617768406777450e+03 -999 1.08147531e+00 5.264118812e-02 -1.76240096e-01