TITLE = "005.02 ALPHA 3.60 GRIDLEVEL 4"

VARIABLES = "ITERATION"  "GRID_LEVEL"  "GRID_SIZE"  "CONTINUITY"  "MOMENTUMX"  "MOMENTUMY"  "MOMENTUMZ"  "ENERGY"  "TURB1"  "TURB2"  "CL_TOT"  "CD_TOT"  "CM_TOT"

DATASETAUXDATA ParticipantID   = "005"
DATASETAUXDATA SubmissionDate  = "10-31-2024"
DATASETAUXDATA Name            = "Jeffrey A. Housman"
DATASETAUXDATA Email           = "jeffrey.a.housman@nasa.gov"
DATASETAUXDATA Institution     = "NASA Ames Research Center"
DATASETAUXDATA SolverName      = "LAVA Curvilinear"
DATASETAUXDATA BasicAlgorithm  = "RANS"
DATASETAUXDATA TurbulenceModel = "SA-RC-comp-neg"
DATASETAUXDATA GridId          = "Multiblock"
DATASETAUXDATA Discretization  = "Finite difference"
DATASETAUXDATA Order           = "2"
DATASETAUXDATA DistanceCalc    = "Exact"
DATASETAUXDATA Notes           = " "

ZONE T = "005.02 - Alpha 3.60 - Grid Level 4"
AUXDATA Tstatic         = "271.0"
AUXDATA Deltat          = "-999"
AUXDATA GridFileName    = "ONERA-OAT15A_230mmChord_780mmSpan_upZ_2024_06_25-Structured_23mm_Level-4.x"
AUXDATA Misc            = " "
 0 4 430284 3.8259399163605337e+05 1.0702837996313365e+06 6.4510413753295537e-14 3.6864837558400101e+05 4.0325753372154833e+05 1.8167285569528176e+06 -999 1.50631060e-02 7.532843529e-01 -9.52225339e-03
 1 4 430284 5.5204748933818436e+05 8.1865280471260706e+05 5.5807038879665252e-14 2.8593132178970886e+05 5.3923969464311376e+05 1.1765946433758114e+06 -999 5.46429721e-02 7.042848489e-01 -2.53454430e-02
 2 4 430284 6.6935572550562839e+05 7.0952496636972285e+05 4.9271677428388569e-14 3.1454100894213485e+05 6.4359579578544840e+05 7.6495760190649354e+05 -999 1.01419336e-01 6.792835240e-01 -4.35778826e-02
 3 4 430284 7.8074052286291495e+05 6.3989439137455169e+05 4.4184559735939389e-14 3.6969944275805418e+05 7.4882462271324173e+05 4.9766184725460439e+05 -999 1.43309767e-01 6.651688518e-01 -6.05054185e-02
 4 4 430284 8.8247303377376625e+05 5.8760394613098435e+05 4.0165148926730186e-14 4.3683600994498952e+05 8.5370163292874035e+05 3.1805941510346939e+05 -999 1.80209891e-01 6.577471865e-01 -7.39174743e-02
 5 4 430284 9.8443333828297805e+05 5.8945029417335812e+05 3.6970366293862447e-14 5.0933535474658600e+05 9.7117043553521391e+05 2.0273044520786402e+05 -999 2.09063478e-01 6.528972652e-01 -8.40451051e-02
 6 4 430284 9.0327455566351535e+05 6.2851421376056178e+05 3.4515810777465788e-14 5.3752650722104358e+05 8.9371927663173387e+05 1.0189032758961721e+05 -999 2.29198120e-01 6.417684119e-01 -9.17610982e-02
 7 4 430284 9.2591222122529463e+05 6.4260146618094819e+05 3.2288051379711467e-14 5.5963661879194609e+05 9.1221187648248021e+05 8.0483268610887331e+04 -999 2.45453149e-01 6.272795668e-01 -9.85268275e-02
 8 4 430284 9.8541994674740545e+05 6.3520626923117135e+05 3.0646999760650278e-14 5.7120267677872570e+05 9.9157013220594265e+05 6.8917786315863006e+04 -999 2.57817342e-01 6.109505047e-01 -1.03546580e-01
 9 4 430284 1.1862130652265085e+06 6.8968631118645181e+05 2.9233711608748985e-14 6.2796045417997241e+05 1.2330843919807386e+06 6.1651120638447006e+04 -999 2.70273999e-01 5.909362727e-01 -1.08151385e-01
 10 4 430284 1.1122946348748230e+06 5.8535059972452663e+05 2.8439649733940500e-14 5.9771527606273303e+05 1.1506862307984387e+06 5.5508657638967328e+04 -999 2.76780080e-01 5.792272220e-01 -1.10475412e-01
 11 4 430284 1.0227180511000548e+06 5.7156432873955625e+05 2.7484308281147904e-14 5.8390604358883190e+05 1.0420779293707943e+06 5.0002944484791296e+04 -999 2.84371581e-01 5.648391099e-01 -1.13275913e-01
 12 4 430284 9.5160236163589009e+05 5.7534761566986062e+05 2.6726218009862809e-14 5.6104109791275184e+05 9.6312937061082025e+05 4.5674953992872281e+04 -999 2.90486583e-01 5.524974666e-01 -1.15431804e-01
 13 4 430284 1.0519079112197568e+06 5.8571398701426317e+05 2.6163918374372147e-14 5.8202978613029711e+05 1.0822821322432279e+06 4.2458096458100699e+04 -999 2.96604178e-01 5.390585123e-01 -1.17563571e-01
 14 4 430284 9.8274120668976498e+05 5.1650697635235154e+05 2.5745457059052510e-14 5.4700607687069359e+05 1.0071311115120549e+06 3.9604013905685788e+04 -999 2.99780447e-01 5.311262936e-01 -1.18721313e-01
 15 4 430284 1.1526386703656518e+06 6.5572784850281081e+05 2.5345393046215770e-14 5.9140643868225778e+05 1.2271325669553310e+06 3.7277293745300463e+04 -999 3.03246130e-01 5.217164730e-01 -1.20100648e-01
 16 4 430284 9.7531864560024533e+05 5.8109276074831688e+05 2.4906751709771603e-14 5.3387708916060627e+05 1.0329118319051452e+06 3.4150605212087336e+04 -999 3.05356622e-01 5.148648559e-01 -1.21013346e-01
 17 4 430284 8.6717952472595032e+05 4.8422493893076002e+05 2.4395293881752020e-14 5.0236345200779400e+05 8.8089908546629560e+05 3.1650022857621560e+04 -999 3.07837561e-01 5.059405228e-01 -1.22073943e-01
 18 4 430284 8.2549646902941272e+05 4.7445067237913026e+05 2.3980189229666417e-14 4.8129752031689347e+05 8.3449098388891353e+05 2.9555394834123952e+04 -999 3.09574337e-01 4.987462190e-01 -1.22763415e-01
 19 4 430284 9.5870090236634016e+05 5.1382414162550552e+05 2.3625868354344491e-14 4.9626316777614644e+05 1.0067090107819821e+06 2.7846564923032987e+04 -999 3.11241941e-01 4.912295057e-01 -1.23347359e-01
 20 4 430284 8.8044295299640263e+05 4.2034491626988025e+05 2.3433366490091608e-14 4.7045885455555801e+05 9.1287728786173998e+05 2.6284607011355383e+04 -999 3.12247875e-01 4.863268564e-01 -1.23645592e-01
 21 4 430284 8.0274716567302390e+05 4.2707775799386029e+05 2.3114760872840832e-14 4.4911229922920826e+05 8.3015095131926739e+05 2.4301007650409359e+04 -999 3.13238717e-01 4.807409565e-01 -1.23911999e-01
 22 4 430284 7.2167665055715421e+05 4.1311537701000494e+05 2.2767988430118930e-14 4.1930806357855955e+05 7.3836805053480144e+05 2.2698306336323989e+04 -999 3.14248610e-01 4.746227125e-01 -1.24170248e-01
 23 4 430284 7.4317444251327193e+05 4.1315842837524135e+05 2.2467757068639713e-14 4.1188261461328267e+05 7.6087029786122055e+05 2.1370235440778408e+04 -999 3.15254529e-01 4.679321861e-01 -1.24421797e-01
 24 4 430284 7.4486729462298483e+05 3.7389160188852367e+05 2.2307617943126895e-14 4.0305061561867048e+05 7.6179673542286817e+05 2.0197119749453635e+04 -999 3.15948707e-01 4.628103041e-01 -1.24598939e-01
 25 4 430284 8.0848874377940805e+05 4.1396409737914777e+05 2.2177883076124067e-14 4.0225018831455888e+05 8.5396045194971259e+05 1.9126444870220013e+04 -999 3.16517008e-01 4.583158960e-01 -1.24749927e-01
 26 4 430284 6.8240850997591566e+05 3.6787370803518238e+05 2.1937604782760134e-14 3.7089616618353553e+05 7.1832698474423483e+05 1.7760950635229103e+04 -999 3.16999804e-01 4.537072491e-01 -1.24876691e-01
 27 4 430284 6.0199515572610928e+05 3.4816750780725118e+05 2.1705738611678490e-14 3.4695486396690179e+05 6.1748295326090709e+05 1.6649313994521777e+04 -999 3.17492280e-01 4.487771405e-01 -1.25009161e-01
 28 4 430284 6.1211766054497205e+05 3.3812644268482435e+05 2.1512683845126985e-14 3.3621943771975487e+05 6.2374444473281142e+05 1.5722438706334917e+04 -999 3.18009650e-01 4.433860960e-01 -1.25151761e-01
 29 4 430284 6.2592476277988765e+05 3.1788376198447600e+05 2.1375142584669353e-14 3.2951991564568155e+05 6.4372125127380749e+05 1.4916182891088278e+04 -999 3.18388197e-01 4.393192155e-01 -1.25257822e-01
 30 4 430284 6.8889264595399913e+05 3.6424893489510409e+05 2.1251982291884389e-14 3.3185154058249283e+05 7.3165497468958120e+05 1.4186609054726661e+04 -999 3.18719342e-01 4.356852173e-01 -1.25349655e-01
 31 4 430284 5.7826874311434757e+05 3.1829018678083172e+05 2.1025395608981496e-14 3.0378502404237975e+05 6.1448211362658534e+05 1.3196499912524845e+04 -999 3.18994258e-01 4.321149810e-01 -1.25418784e-01
 32 4 430284 4.9299482611371193e+05 2.8900788338928414e+05 2.0767138507037586e-14 2.7924455237524922e+05 5.0979392257004679e+05 1.2368410070140962e+04 -999 3.19307829e-01 4.280175173e-01 -1.25496882e-01
 33 4 430284 4.7862109143239644e+05 2.7581085599107161e+05 2.0532053701847542e-14 2.6433098529219563e+05 4.8622632367862028e+05 1.1666297731373592e+04 -999 3.19628452e-01 4.238007978e-01 -1.25576695e-01
 34 4 430284 5.3411962900375691e+05 2.8324898314362339e+05 2.0365946627071390e-14 2.6422276784271648e+05 5.5433439896145836e+05 1.1060578354170197e+04 -999 3.19927464e-01 4.198331332e-01 -1.25651553e-01
 35 4 430284 5.3004689365773438e+05 2.6279569214934512e+05 2.0268950344713489e-14 2.5858933347590521e+05 5.5449530416576786e+05 1.0513174459989939e+04 -999 3.20133700e-01 4.170625464e-01 -1.25703572e-01
 36 4 430284 4.5903238486948673e+05 2.5240945729173720e+05 2.0053025161130708e-14 2.3860082596377571e+05 4.8423635341534781e+05 9.8088347219034276e+03 -999 3.20335219e-01 4.139288664e-01 -1.25750489e-01
 37 4 430284 3.8892036268092017e+05 2.3114481868340686e+05 1.9810695480898198e-14 2.1710246082945642e+05 4.0394129753803636e+05 9.2154793521101819e+03 -999 3.20559724e-01 4.104894115e-01 -1.25803856e-01
 38 4 430284 3.7085804680018878e+05 2.1535591563342977e+05 1.9565735353714593e-14 2.0270660556695081e+05 3.7523598011710995e+05 8.6845389361402267e+03 -999 3.20809576e-01 4.067111137e-01 -1.25864337e-01
 39 4 430284 4.0056430750733789e+05 2.1489914862367563e+05 1.9396578448959559e-14 1.9911615992068691e+05 4.1298920526180975e+05 8.2188353176847450e+03 -999 3.21025746e-01 4.034780737e-01 -1.25917526e-01
 40 4 430284 4.3057879444649763e+05 2.3567568881637001e+05 1.9287729918441111e-14 1.9856776629810833e+05 4.5675685868186149e+05 7.8059036375477854e+03 -999 3.21198294e-01 4.009140984e-01 -1.25960601e-01
 41 4 430284 3.6435252679526317e+05 2.0506408626011404e+05 1.9065428210210051e-14 1.8166542343229611e+05 3.8917986827411031e+05 7.2874926033265547e+03 -999 3.21354031e-01 3.983011728e-01 -1.25996495e-01
 42 4 430284 3.0043730215908535e+05 1.8516996972421982e+05 1.8800862110841362e-14 1.6452028375809832e+05 3.1508619357168308e+05 6.8447003961568180e+03 -999 3.21537480e-01 3.952972434e-01 -1.26039664e-01
 43 4 430284 2.7558329871997371e+05 1.6936587513771545e+05 1.8523686808248476e-14 1.5158224529067904e+05 2.7883815000214207e+05 6.4506058479311832e+03 -999 3.21738887e-01 3.920757982e-01 -1.26087977e-01
 44 4 430284 2.9695232287352509e+05 1.7067266502408305e+05 1.8292329197342382e-14 1.4706987371189374e+05 3.0445055126909097e+05 6.0949675574758021e+03 -999 3.21925995e-01 3.891418240e-01 -1.26133633e-01
 45 4 430284 3.2567999436281063e+05 1.7915624408815071e+05 1.8123300843253494e-14 1.4708058369028108e+05 3.4129762660562783e+05 5.7765904030788433e+03 -999 3.22090269e-01 3.865983919e-01 -1.26174336e-01
 46 4 430284 2.7636092957229522e+05 1.6254808480110249e+05 1.7911744192202161e-14 1.3464485423333279e+05 2.9542847593651235e+05 5.3616222518106842e+03 -999 3.22223442e-01 3.843094202e-01 -1.26204910e-01
 47 4 430284 2.2215654507844063e+05 1.4429985548081086e+05 1.7643838451933532e-14 1.2024522023182816e+05 2.3564226620143212e+05 5.0078034426259001e+03 -999 3.22385983e-01 3.815966403e-01 -1.26242799e-01
 48 4 430284 1.9520504909122895e+05 1.3039771642973420e+05 1.7357709287127958e-14 1.0841685878571850e+05 1.9868087667195793e+05 4.6990956448035913e+03 -999 3.22569786e-01 3.786036644e-01 -1.26286477e-01
 49 4 430284 2.0417743386698063e+05 1.2849841716813216e+05 1.7116970141932387e-14 1.0273328971030637e+05 2.0898850076003929e+05 4.3983273762101671e+03 -999 3.22742755e-01 3.758485060e-01 -1.26328434e-01
 50 4 430284 2.2213414482548984e+05 1.3743608247146657e+05 1.6936078081304906e-14 1.0072749609127974e+05 2.3419196682052463e+05 4.1413203589307550e+03 -999 3.22892449e-01 3.734986307e-01 -1.26365581e-01
 51 4 430284 1.8810720877230426e+05 1.2022813749143083e+05 1.6731229846870711e-14 9.1884225355347124e+04 2.0191493348324008e+05 3.8028078535339669e+03 -999 3.23021826e-01 3.712900860e-01 -1.26395735e-01
 52 4 430284 1.5113797605203895e+05 1.0619226320595502e+05 1.6482589180756761e-14 8.2187306880340679e+04 1.6220284801597483e+05 3.5080032492906689e+03 -999 3.23177120e-01 3.686964426e-01 -1.26432668e-01
 53 4 430284 1.2906166449114776e+05 9.6297965248997192e+04 1.6201303771146606e-14 7.3412884533912424e+04 1.3411114565546287e+05 3.2449908695599174e+03 -999 3.23356695e-01 3.657615095e-01 -1.26476447e-01
 54 4 430284 1.2879291954674582e+05 9.2819921020605092e+04 1.5947620075289579e-14 6.8109484859395729e+04 1.3259436741206492e+05 3.0126151860089085e+03 -999 3.23534003e-01 3.629170203e-01 -1.26521182e-01
 55 4 430284 1.3399379165512539e+05 9.3828350487271746e+04 1.5746674099037219e-14 6.5184912049756858e+04 1.4043173243118305e+05 2.8143024271018653e+03 -999 3.23688740e-01 3.604608263e-01 -1.26562062e-01
 56 4 430284 1.1501747083074298e+05 8.5835360060809500e+04 1.5549988929286344e-14 6.0075620158519858e+04 1.2282100022104435e+05 2.5402765244113607e+03 -999 3.23817911e-01 3.582427199e-01 -1.26595257e-01
 57 4 430284 9.3275525563489238e+04 7.8280473852026262e+04 1.5313855226676458e-14 5.4242511313931151e+04 1.0042654743620336e+05 2.3054238193928809e+03 -999 3.23974437e-01 3.555984676e-01 -1.26636521e-01
 58 4 430284 7.7377562871727016e+04 7.1709868241326592e+04 1.5011417103898832e-14 4.8440716452481181e+04 8.1759609926655845e+04 2.0946431592419385e+03 -999 3.24160787e-01 3.524973556e-01 -1.26687488e-01
 59 4 430284 7.2275216173579916e+04 6.7864393269895882e+04 1.4744346631270171e-14 4.4317319247218926e+04 7.5096906036148182e+04 1.9197268697798997e+03 -999 3.24345558e-01 3.494537854e-01 -1.26741010e-01
 60 4 430284 7.0392029863445365e+04 6.5568496976496623e+04 1.4515954065451563e-14 4.1467550373778366e+04 7.3187815911234124e+04 1.7708675823281667e+03 -999 3.24512709e-01 3.467015011e-01 -1.26793305e-01
 61 4 430284 6.1445283294725596e+04 6.2022969850681002e+04 1.4304979240937879e-14 3.8482917590386416e+04 6.4666593380428218e+04 1.5854559655802293e+03 -999 3.24645164e-01 3.442838067e-01 -1.26832962e-01
 62 4 430284 5.0909272550779679e+04 5.8202652008657526e+04 1.4032461782180313e-14 3.4974748508655786e+04 5.3752334357573774e+04 1.4195718554390342e+03 -999 3.24807191e-01 3.413313049e-01 -1.26882300e-01
 63 4 430284 4.2189006691909606e+04 5.4319502418320277e+04 1.3700026502026742e-14 3.1216807837545479e+04 4.3825312924335944e+04 1.2841384006827441e+03 -999 3.25000917e-01 3.377818645e-01 -1.26943184e-01
 64 4 430284 3.7720791193689394e+04 5.1241574452590758e+04 1.3368394062021727e-14 2.8150981722754739e+04 3.8562541602325357e+04 1.1736155112208933e+03 -999 3.25190063e-01 3.342475150e-01 -1.27006369e-01
 65 4 430284 3.4857280591210292e+04 4.8830488590626941e+04 1.3088571068920584e-14 2.5781634670861942e+04 3.5366305411872956e+04 1.0838975582270436e+03 -999 3.25357929e-01 3.309933256e-01 -1.27067824e-01
 66 4 430284 3.0955173671926506e+04 4.6518370807549356e+04 1.2840795368014962e-14 2.3821805958342073e+04 3.1452783660677665e+04 9.7656805311580979e+02 -999 3.25467424e-01 3.279997106e-01 -1.27098609e-01
 67 4 430284 2.6523546791300330e+04 4.3871726485190127e+04 1.2534842893083957e-14 2.1539426594845871e+04 2.6812844654119235e+04 8.9211421539490937e+02 -999 3.25592426e-01 3.242443128e-01 -1.27130762e-01
 68 4 430284 2.2706878235039185e+04 4.1025304180340579e+04 1.2152833314840321e-14 1.9098563993878412e+04 2.2722067633857518e+04 8.3301727603697691e+02 -999 3.25725836e-01 3.196498090e-01 -1.27160508e-01
 69 4 430284 2.0269441196164451e+04 3.8552024299355537e+04 1.1776873907962364e-14 1.6929058020366487e+04 2.0294532855808109e+04 7.9800544008072154e+02 -999 3.25840564e-01 3.149853757e-01 -1.27176635e-01
 70 4 430284 1.8686640804832663e+04 3.6530515215821244e+04 1.1452694422949247e-14 1.5324741475318786e+04 1.8894917559140813e+04 8.0130263184597777e+02 -999 3.25927707e-01 3.105597843e-01 -1.27182614e-01
 71 4 430284 1.6821861077868252e+04 3.4500723913702444e+04 2.2077910226574550e-14 1.3936149098322952e+04 1.7348958576851455e+04 8.3273878032623384e+02 -999 3.25937787e-01 3.056720605e-01 -1.27106112e-01
 72 4 430284 1.5100481869053374e+04 3.2212238337232346e+04 4.0763167897227737e-14 1.2620613777033341e+04 1.6020368747846964e+04 9.0396052280560161e+02 -999 3.25953336e-01 2.992256852e-01 -1.26988415e-01
 73 4 430284 1.4203752902928009e+04 2.9942895172120472e+04 5.7995028423005056e-14 1.1777697780203256e+04 1.5548263354617169e+04 1.0526579017200618e+03 -999 3.25997188e-01 2.912329596e-01 -1.26833816e-01
 74 4 430284 1.4229028559619037e+04 2.8168379832245071e+04 6.8156267486579157e-14 1.1615453169194456e+04 1.5911404519146485e+04 1.3061575480309921e+03 -999 3.26098945e-01 2.830538450e-01 -1.26692367e-01
 75 4 430284 1.4626790830929771e+04 2.6810027507069106e+04 7.2035838777734880e-14 1.1786678902378579e+04 1.6553101433592474e+04 1.7199286888480451e+03 -999 3.26279927e-01 2.749286981e-01 -1.26597146e-01
 76 4 430284 1.4244118154553640e+04 2.4784090864297883e+04 5.6798779355947919e-14 1.1010991816572083e+04 1.6405109248224846e+04 2.6330653720664664e+03 -999 3.26691676e-01 2.636479195e-01 -1.26553237e-01
 77 4 430284 1.4354440094381445e+04 2.3023709840671523e+04 4.0250196290384169e-14 1.0489868683979674e+04 1.6587725905854677e+04 6.6913539218757196e+03 -999 3.27538708e-01 2.478070906e-01 -1.26716465e-01
 78 4 430284 1.4619496493538429e+04 2.2501272835031672e+04 2.7907674119966401e-14 1.0362427141274726e+04 1.6732056425643248e+04 1.9325024723562685e+04 -999 3.28748771e-01 2.302404995e-01 -1.27333739e-01
 79 4 430284 1.4910858820491625e+04 2.3379119885926499e+04 2.0215105777809449e-14 1.0497890998320825e+04 1.6758664714411745e+04 4.2283854472818988e+04 -999 3.29920021e-01 2.127984402e-01 -1.28501726e-01
 80 4 430284 1.5259955357873814e+04 2.4956802648146819e+04 1.5365276423247356e-14 1.0763313261739902e+04 1.6808453951698779e+04 7.6445125143781406e+04 -999 3.30601519e-01 1.950502920e-01 -1.30214938e-01
 81 4 430284 1.3335516965468076e+04 1.9579632476929928e+04 2.0341340237810709e-14 9.9036981413371759e+03 1.4375687999769982e+04 1.9014699419491008e+05 -999 3.30237648e-01 1.681564152e-01 -1.33515134e-01
 82 4 430284 1.1713690759059285e+04 1.7643517243229751e+04 4.2564838096145405e-14 9.3474164012066249e+03 1.2638393031705989e+04 1.8709144530342027e+05 -999 3.27574502e-01 1.466016123e-01 -1.36073191e-01
 83 4 430284 1.0854684732183308e+04 2.7987591980770623e+04 6.0192477684267020e-14 8.9383985892924411e+03 1.4224428721854541e+04 1.7292591236952474e+05 -999 3.25125611e-01 1.380951400e-01 -1.36477395e-01
 84 4 430284 1.0610004474459683e+04 3.2713908256245777e+04 6.5428176272257727e-14 8.4007127048586080e+03 1.4320199735393584e+04 1.1217736000393874e+05 -999 3.24400761e-01 1.361421979e-01 -1.36450694e-01
 85 4 430284 1.0476324628921760e+04 3.0609149795358484e+04 6.8684397919701515e-14 8.1999091982910813e+03 1.3819837036595838e+04 5.0077151922610385e+04 -999 3.23918231e-01 1.349522678e-01 -1.36408269e-01
 86 4 430284 9.2212684269067795e+03 1.7037084969928968e+04 5.5241996802291881e-14 6.9038414192209184e+03 9.5981388135323286e+03 1.3803647718880366e+05 -999 3.19653927e-01 1.247537199e-01 -1.35961791e-01
 87 4 430284 8.3520012832224093e+03 1.5736379958359323e+04 4.6469811687945210e-14 6.1922377614319985e+03 8.5279080313913055e+03 8.9178650694769909e+04 -999 3.16333202e-01 1.181388338e-01 -1.35020910e-01
 88 4 430284 7.8980634256171161e+03 1.4973790835649464e+04 4.1770112346723143e-14 5.7485012208139515e+03 8.0161870838424593e+03 3.7322635230624692e+04 -999 3.14819253e-01 1.146010909e-01 -1.34306331e-01
 89 4 430284 7.6308910002008015e+03 1.4118098730929156e+04 3.7946952255304840e-14 5.4011660419853824e+03 7.6781582212338608e+03 2.7885308320045180e+04 -999 3.13924950e-01 1.116689538e-01 -1.33670012e-01
 90 4 430284 7.4128444639662066e+03 1.3530341969850597e+04 3.5814302292136369e-14 5.2493381908480542e+03 7.4621345302066266e+03 1.6585219262025148e+04 -999 3.13676264e-01 1.100329193e-01 -1.33315264e-01
 91 4 430284 6.4780064458907782e+03 1.1361347946212822e+04 3.1637631743312078e-14 4.6504212641471695e+03 6.4169681936945626e+03 3.5711599814719244e+04 -999 3.16333105e-01 1.055176730e-01 -1.33100340e-01
 92 4 430284 5.7620425495281106e+03 9.3565582784302387e+03 2.6229685255396488e-14 4.4179838206395980e+03 5.6002285651957418e+03 5.1919634173980936e+04 -999 3.23202557e-01 9.953269428e-02 -1.33683290e-01
 93 4 430284 5.7765466918886696e+03 8.8661751320371059e+03 2.1658458352630451e-14 4.3576575407610117e+03 5.5703744288374728e+03 4.2160931362477349e+04 -999 3.33814155e-01 9.437820884e-02 -1.35514910e-01
 94 4 430284 5.8672170709285338e+03 9.0484791525408546e+03 1.9413706413023880e-14 4.1976367552222109e+03 5.6825944550630029e+03 2.0177467114129828e+04 -999 3.41722661e-01 9.179868547e-02 -1.37307435e-01
 95 4 430284 5.8827472191334382e+03 9.1925666609882283e+03 1.7610072293134692e-14 4.0445149922496457e+03 5.7497677615604543e+03 1.8623115289504687e+04 -999 3.49831117e-01 8.959584931e-02 -1.39334460e-01
 96 4 430284 4.5060348564687683e+03 6.4335799743272519e+03 9.6877319593074978e-14 3.3755903794045676e+03 4.4147648662940001e+03 4.1487078047052899e+04 -999 3.72857622e-01 8.521917505e-02 -1.45846325e-01
 97 4 430284 4.0792140417738010e+03 4.8537005867655898e+03 1.4625078647323049e-13 2.9334757648224117e+03 4.1394887020387087e+03 7.4979976499867858e+04 -999 4.09331440e-01 8.035306826e-02 -1.57095622e-01
 98 4 430284 3.5882859785807686e+03 4.0666649285783292e+03 7.0486044385236036e-14 2.5116933302948842e+03 3.4684224850732489e+03 7.4525005099127651e+04 -999 4.48002118e-01 7.656862458e-02 -1.69147692e-01
 99 4 430284 3.4584347616447512e+03 4.0132446931530399e+03 1.2728395248775268e-13 2.1218650015681537e+03 3.2268112567362873e+03 6.8465863355247726e+04 -999 4.89193538e-01 7.361818782e-02 -1.80912613e-01
 100 4 430284 3.4365885566253373e+03 4.0195276780921013e+03 1.8041714448170413e-13 1.6206633990988876e+03 3.1885345036442955e+03 5.4872062905686944e+04 -999 5.33343299e-01 7.133906592e-02 -1.91609258e-01
 101 4 430284 2.9853637814693916e+03 3.2285591441068573e+03 2.7080134260536104e-13 1.3895550830702975e+03 2.8300697071491959e+03 7.0509514295131128e+04 -999 5.79570069e-01 6.987440103e-02 -2.00678015e-01
 102 4 430284 2.7775380996612207e+03 2.8562241921079803e+03 2.8030569814917968e-13 1.0171782752887473e+03 2.6339246508964516e+03 2.6807330284403728e+04 -999 6.22138568e-01 6.923570313e-02 -2.06950713e-01
 103 4 430284 2.6684843613758699e+03 2.6569812863039192e+03 2.6667065937698025e-13 8.1688476106801090e+02 2.5405388827325633e+03 1.4732211406912145e+04 -999 6.50733638e-01 6.927809950e-02 -2.09874327e-01
 104 4 430284 2.6040465842891122e+03 2.5719397549082673e+03 2.6333323813045188e-13 7.4533208793415884e+02 2.4832561320517348e+03 1.2384890662977372e+04 -999 6.65022159e-01 6.944444866e-02 -2.10854131e-01
 105 4 430284 2.5732687477918907e+03 2.4155687622568335e+03 2.6401315326067752e-13 6.5590767878532495e+02 2.4668576802474431e+03 1.3609646899650621e+04 -999 6.89699785e-01 6.986384433e-02 -2.12145653e-01
 106 4 430284 2.3932641759085318e+03 2.2538697144539374e+03 2.4391159549759325e-13 6.7466299118463166e+02 2.3083953209134020e+03 1.3067656542511681e+04 -999 7.19985881e-01 7.105355555e-02 -2.13154912e-01
 107 4 430284 2.3351292103399569e+03 2.0780440549963710e+03 3.4962642204884596e-13 6.6086241449128272e+02 2.2750172094541322e+03 1.3544527466247269e+04 -999 7.64890148e-01 7.304508016e-02 -2.13160222e-01
 108 4 430284 2.2280944618251583e+03 1.9461098244419575e+03 3.6074063086837842e-13 5.6597184298188063e+02 2.1653603768387320e+03 9.8011044538781480e+03 -999 8.01161760e-01 7.491575037e-02 -2.11315355e-01
 109 4 430284 2.1423720073704694e+03 1.8603807149623087e+03 3.3353514104938958e-13 5.1741390528405248e+02 2.0739937676461718e+03 8.9811190046807278e+03 -999 8.24383893e-01 7.628264244e-02 -2.09315923e-01
 110 4 430284 2.0388893033722031e+03 1.7740758952433096e+03 3.0539325194637575e-13 4.8152118022973491e+02 1.9746532350741975e+03 8.9090688684295237e+03 -999 8.56132761e-01 7.820107327e-02 -2.05841704e-01
 111 4 430284 1.8323151042023107e+03 1.6546971918343977e+03 1.7981716133999613e-13 4.8247268604559855e+02 1.7636309074262006e+03 8.7015094105463068e+03 -999 8.84396614e-01 7.989402113e-02 -2.01938194e-01
 112 4 430284 1.6427257733620879e+03 1.5313054208597773e+03 1.5065652207412957e-13 4.2159156970055096e+02 1.5608261193469029e+03 8.1145469910813372e+03 -999 9.09699505e-01 8.084292751e-02 -1.97938228e-01
 113 4 430284 1.5043751578138724e+03 1.4304308079123832e+03 1.3403156780440284e-13 4.0136557433224908e+02 1.4015819806374975e+03 8.3630710866263926e+03 -999 9.31920416e-01 8.081480511e-02 -1.94707688e-01
 114 4 430284 1.3859174267012327e+03 1.3436619490940534e+03 1.2740565524086952e-13 3.6893631373781824e+02 1.2659997992960916e+03 8.3051767627390418e+03 -999 9.51808042e-01 7.984942884e-02 -1.92542249e-01
 115 4 430284 1.3122768623596905e+03 1.2899001011368230e+03 1.2803335027481584e-13 3.5146757593651870e+02 1.1835498425889200e+03 8.2883458967412571e+03 -999 9.65202979e-01 7.860471648e-02 -1.91702607e-01
 116 4 430284 1.2724742702770675e+03 1.2565512107757095e+03 1.3050969416411228e-13 3.4674856699177741e+02 1.1399171082867979e+03 7.7561293763630229e+03 -999 9.72256504e-01 7.780246688e-02 -1.91601674e-01
 117 4 430284 1.2350941147879328e+03 1.2229187527650279e+03 2.1704718218003311e-13 3.4473339885251767e+02 1.0978684877969586e+03 8.0836257823884307e+03 -999 9.81403499e-01 7.673388519e-02 -1.91592124e-01
 118 4 430284 1.2027394439890058e+03 1.1912724171188681e+03 2.9483968258832522e-13 3.4428342744056852e+02 1.0616844271294233e+03 8.3137349994203687e+03 -999 9.91834637e-01 7.547613235e-02 -1.91672542e-01
 119 4 430284 1.1876118301611748e+03 1.1809122153013138e+03 3.3918238615607939e-13 3.4471315530083700e+02 1.0430618218831928e+03 8.3013518189768802e+03 -999 1.00317156e+00 7.410480000e-02 -1.91814478e-01
 120 4 430284 1.1739640584192225e+03 1.1709903115587633e+03 3.5871034219835532e-13 3.4355506361065818e+02 1.0271097645602576e+03 7.8398650711399532e+03 -999 1.00953799e+00 7.335086375e-02 -1.91884768e-01
 121 4 430284 1.1546394560258821e+03 1.1757880244706166e+03 2.4696694280921767e-13 3.4309309254202509e+02 1.0074565943468781e+03 7.9158771807349349e+03 -999 1.01557702e+00 7.265392403e-02 -1.91950083e-01
 122 4 430284 1.1437440149194422e+03 1.1778983268433210e+03 1.6251196418199930e-13 3.4538943697765313e+02 9.9609796175369536e+02 8.0909793349848442e+03 -999 1.02367729e+00 7.177350679e-02 -1.92034373e-01
 123 4 430284 1.1486504543925307e+03 1.1747717910773806e+03 1.5874994511263526e-13 3.4282957232931795e+02 9.9992417365597407e+02 8.3014566588763919e+03 -999 1.03342359e+00 7.081212136e-02 -1.92125151e-01
 124 4 430284 1.1583907926744293e+03 1.1760942488041321e+03 1.6962032192239506e-13 3.3681855216091805e+02 1.0080344557399061e+03 8.5371217892563600e+03 -999 1.04050304e+00 7.019648260e-02 -1.92162886e-01
 125 4 430284 1.1634558083135105e+03 1.1921102199025584e+03 1.7482948387467713e-13 3.3334039522884888e+02 1.0135266614587382e+03 8.9327987238072892e+03 -999 1.04554220e+00 6.979648879e-02 -1.92160507e-01
 126 4 430284 1.1458093283982435e+03 1.2006559716149864e+03 1.3872673571574644e-13 3.3189040641639230e+02 9.9734786962379746e+02 9.5791012033445622e+03 -999 1.05040148e+00 6.940163854e-02 -1.92055686e-01
 127 4 430284 1.1468245148405827e+03 1.2015309196202943e+03 1.1445361425987070e-13 3.3197840567440142e+02 9.9864106784086039e+02 1.0301612476258928e+04 -999 1.05607849e+00 6.898646889e-02 -1.91918982e-01
 128 4 430284 1.1578344870617232e+03 1.1886033944417402e+03 1.0543894626084370e-13 3.3049083975304711e+02 1.0106080742923567e+03 1.1071098024464502e+04 -999 1.06211205e+00 6.859476295e-02 -1.91747698e-01
 129 4 430284 1.1752384025846072e+03 1.1794406426984601e+03 1.0284896118122758e-13 3.2856464984254649e+02 1.0283206666020403e+03 1.1949799694710744e+04 -999 1.06800976e+00 6.826310432e-02 -1.91559115e-01
 130 4 430284 1.1962530609330297e+03 1.1939677603847688e+03 1.0397185968455675e-13 3.2834549319677132e+02 1.0488824511250045e+03 1.2811694049749707e+04 -999 1.07175672e+00 6.808186011e-02 -1.91420520e-01
 131 4 430284 1.1655051925082169e+03 1.1933067651605918e+03 9.4337881901538454e-14 3.2669457984405187e+02 1.0210027279340446e+03 1.3790919428058445e+04 -999 1.07518923e+00 6.787535578e-02 -1.91140694e-01
 132 4 430284 1.1512535667513450e+03 1.1845979925048719e+03 9.1051728945860020e-14 3.2817592847689843e+02 1.0087084727667344e+03 1.4700760773274616e+04 -999 1.07924112e+00 6.766120809e-02 -1.90811622e-01
 133 4 430284 1.1522048723722860e+03 1.1681325322336340e+03 9.5883526242994428e-14 3.2994424030373403e+02 1.0111923277118451e+03 1.5575816936540785e+04 -999 1.08364832e+00 6.745967263e-02 -1.90446477e-01
 134 4 430284 1.1863940953396252e+03 1.1681828834795494e+03 1.0270202212516129e-13 3.3159050559003612e+02 1.0463858284488263e+03 1.6222264155211218e+04 -999 1.08834565e+00 6.727236120e-02 -1.90033224e-01
 135 4 430284 1.2016705051144959e+03 1.1600521588935585e+03 1.0356058521886807e-13 3.3120643748686615e+02 1.0625584987932111e+03 1.6930369320799738e+04 -999 1.09109440e+00 6.716732027e-02 -1.89749834e-01
 136 4 430284 1.1678488054518793e+03 1.1626949943630593e+03 9.1075156426299805e-14 3.3444565625832985e+02 1.0307443954185417e+03 1.7296003264975603e+04 -999 1.09319076e+00 6.707352356e-02 -1.89469015e-01
 137 4 430284 1.1492773556875013e+03 1.1556170264614125e+03 8.0058025542861647e-14 3.3984751326315325e+02 1.0130010225484833e+03 1.7549174602707328e+04 -999 1.09584773e+00 6.696652955e-02 -1.89123303e-01
 138 4 430284 1.1523868413952216e+03 1.1381226887112628e+03 7.4255868630156281e-14 3.4531275793975556e+02 1.0167640079945276e+03 1.7727767907265064e+04 -999 1.09901961e+00 6.685185331e-02 -1.88716954e-01
 139 4 430284 1.1705706074778827e+03 1.1299823343806615e+03 7.3732746480548128e-14 3.4803041909470016e+02 1.0349171490900414e+03 1.7760831847231886e+04 -999 1.10178230e+00 6.675807004e-02 -1.88351919e-01
 140 4 430284 1.1821072152532122e+03 1.1300732023368639e+03 7.5034354158465453e-14 3.4994525281530599e+02 1.0470477488397526e+03 1.7865293414434553e+04 -999 1.10407926e+00 6.667852503e-02 -1.88026942e-01
 141 4 430284 1.1557655185806345e+03 1.1326381050818095e+03 7.1047652253606239e-14 3.5651153803239339e+02 1.0216607374105412e+03 1.8035323803028226e+04 -999 1.10553797e+00 6.661666034e-02 -1.87784670e-01