TITLE = "005.02 ALPHA 1.36 GRIDLEVEL 2"

VARIABLES = "ITERATION"  "GRID_LEVEL"  "GRID_SIZE"  "CONTINUITY"  "MOMENTUMX"  "MOMENTUMY"  "MOMENTUMZ"  "ENERGY"  "TURB1"  "TURB2"  "CL_TOT"  "CD_TOT"  "CM_TOT"

DATASETAUXDATA ParticipantID   = "005"
DATASETAUXDATA SubmissionDate  = "10-31-2024"
DATASETAUXDATA Name            = "Jeffrey A. Housman"
DATASETAUXDATA Email           = "jeffrey.a.housman@nasa.gov"
DATASETAUXDATA Institution     = "NASA Ames Research Center"
DATASETAUXDATA SolverName      = "LAVA Curvilinear"
DATASETAUXDATA BasicAlgorithm  = "RANS"
DATASETAUXDATA TurbulenceModel = "SA-RC-comp-neg"
DATASETAUXDATA GridId          = "Multiblock"
DATASETAUXDATA Discretization  = "Finite difference"
DATASETAUXDATA Order           = "2"
DATASETAUXDATA DistanceCalc    = "Exact"
DATASETAUXDATA Notes           = " "

ZONE T = "005.02 - Alpha 1.36 - Grid Level 2"
AUXDATA Tstatic         = "271.0"
AUXDATA Deltat          = "-999"
AUXDATA GridFileName    = "ONERA-OAT15A_230mmChord_780mmSpan_upZ_2024_06_25-Structured_23mm_Level-2.x"
AUXDATA Misc            = " "
 0 2 119662 1.6489367092191122e+05 3.4056104440228263e+05 3.0559167587723566e-14 1.3644493557907481e+05 1.6295039264119510e+05 5.1219187886823993e+05 -999 3.64583225e-03 4.525052575e-01 -8.58551516e-05
 1 2 119662 2.2770360245000359e+05 2.7180075789036736e+05 2.7476338262122651e-14 1.1691589288303729e+05 2.1807492004504017e+05 3.2966352349250828e+05 -999 2.10964893e-02 4.450184931e-01 -1.11080568e-02
 2 2 119662 2.8072699178480991e+05 2.4340362979390391e+05 2.5127408608181745e-14 1.2940102595241427e+05 2.6686372344052338e+05 2.1173102543295050e+05 -999 3.82564874e-02 4.478673656e-01 -2.25809781e-02
 3 2 119662 3.3260181426565471e+05 2.2508880391062092e+05 2.3313362492574176e-14 1.5309941608856982e+05 3.1629692934267770e+05 1.3494038869150839e+05 -999 5.27817078e-02 4.560459589e-01 -3.22393637e-02
 4 2 119662 3.8415344947163010e+05 2.0882939005475643e+05 2.1905141166837432e-14 1.8198669656509947e+05 3.6889227017315605e+05 8.4554268196491917e+04 -999 6.75767335e-02 4.673297945e-01 -4.10183191e-02
 5 2 119662 4.3318298602217174e+05 2.1100596710018889e+05 2.0797523928562635e-14 2.1270019015536184e+05 4.2256346174941392e+05 4.2198983577502615e+04 -999 7.90544790e-02 4.790206515e-01 -4.76588020e-02
 6 2 119662 3.9507242866425525e+05 2.5170949431903596e+05 1.9917657830044538e-14 2.2583559820681092e+05 3.8744779509925720e+05 3.4151172000623112e+04 -999 8.66193054e-02 4.842787227e-01 -5.27399386e-02
 7 2 119662 3.9173776330220874e+05 2.7243342500208580e+05 1.9119530268742833e-14 2.3071091125417792e+05 3.8077836449459952e+05 2.8345348573595144e+04 -999 9.26042332e-02 4.852540490e-01 -5.72162648e-02
 8 2 119662 4.2800478219952603e+05 2.7113255220124259e+05 1.8566945792267533e-14 2.2784881682229807e+05 4.3052112786950357e+05 2.4244263270757387e+04 -999 9.76426772e-02 4.805969496e-01 -6.05398546e-02
 9 2 119662 4.4778213728069572e+05 2.5148316053055038e+05 1.8170285113039721e-14 2.2890084805088097e+05 4.5396198808846745e+05 2.1440343600243625e+04 -999 1.02750085e-01 4.723752454e-01 -6.32407421e-02
 10 2 119662 4.6462582068353711e+05 2.4937884749605961e+05 1.7973467767344846e-14 2.2336116699772503e+05 4.8161300387371116e+05 1.9182775288240726e+04 -999 1.06385414e-01 4.659920261e-01 -6.49476658e-02
 11 2 119662 3.8305394487730641e+05 2.1448411434676006e+05 1.7775320892347558e-14 2.0534279048124206e+05 3.9114719061402598e+05 1.7228468785252189e+04 -999 1.10633530e-01 4.580967731e-01 -6.69728450e-02
 12 2 119662 3.6232480465327058e+05 2.1707684409774755e+05 1.7641286238259482e-14 1.9788241380585398e+05 3.6466520629993425e+05 1.5635573121423447e+04 -999 1.13888102e-01 4.517444293e-01 -6.85858821e-02
 13 2 119662 3.4326737192951620e+05 1.9105083443449490e+05 1.7588599493283465e-14 1.8792542311791269e+05 3.4222068622026133e+05 1.4331489586994237e+04 -999 1.16342416e-01 4.462821527e-01 -6.99311055e-02
 14 2 119662 3.7723344972328411e+05 2.0058852882824891e+05 1.7606213933387743e-14 1.8634911979878938e+05 3.8864138746655564e+05 1.3199595868612267e+04 -999 1.17947027e-01 4.418735773e-01 -7.09390121e-02
 15 2 119662 3.4069579165952967e+05 1.6807160001626774e+05 1.7581693483184323e-14 1.7528598674189407e+05 3.4706835235206765e+05 1.2236158027562977e+04 -999 1.19029324e-01 4.382056306e-01 -7.17147431e-02
 16 2 119662 3.1794076721293142e+05 1.7591527497585613e+05 1.7474080154426490e-14 1.6849111076530218e+05 3.2429345996789139e+05 1.1148258710193735e+04 -999 1.19962791e-01 4.343932817e-01 -7.24323439e-02
 17 2 119662 2.8275024136287544e+05 1.6888910290442343e+05 1.7345259384247519e-14 1.5469035681996780e+05 2.8828938722137531e+05 1.0261462363347488e+04 -999 1.20903768e-01 4.301833372e-01 -7.31598139e-02
 18 2 119662 2.9477741385900881e+05 1.6449005005677690e+05 1.7244974138498099e-14 1.5178042893681090e+05 3.0008621151901601e+05 9.5137114191473120e+03 -999 1.22019646e-01 4.248758033e-01 -7.39757382e-02
 19 2 119662 2.6602529293239897e+05 1.4571576281219965e+05 1.7125756020225134e-14 1.4026144387455939e+05 2.7101693957067077e+05 8.8532105946946413e+03 -999 1.22705370e-01 4.213470989e-01 -7.44214129e-02
 20 2 119662 3.1323542030351004e+05 1.7340167468847893e+05 1.7000932181183837e-14 1.4696096319233850e+05 3.2914969517740060e+05 8.2976108528697496e+03 -999 1.23488542e-01 4.170078284e-01 -7.48949017e-02
 21 2 119662 2.5901555757289348e+05 1.5962545138079984e+05 1.6862356654090159e-14 1.3097825363977632e+05 2.7485306993677979e+05 7.6476972394396298e+03 -999 1.24026020e-01 4.133114405e-01 -7.51979857e-02
 22 2 119662 2.1723133888224608e+05 1.2989517462397052e+05 1.6700158138708531e-14 1.1772636599888709e+05 2.2245311934362858e+05 7.0835111832378752e+03 -999 1.24611484e-01 4.088153418e-01 -7.55254570e-02
 23 2 119662 1.9947236586661168e+05 1.2469532102563532e+05 1.6549211212792644e-14 1.0952455337820327e+05 2.0127662763926131e+05 6.5929797082819850e+03 -999 1.25083792e-01 4.046990491e-01 -7.57901651e-02
 24 2 119662 2.2770278019772994e+05 1.2759260236373924e+05 1.6425180448317834e-14 1.0917195723594783e+05 2.3710807449204766e+05 6.1612726553338198e+03 -999 1.25502506e-01 4.006427798e-01 -7.60263846e-02
 25 2 119662 2.0376043938379039e+05 1.0584313722740985e+05 1.6355340821164004e-14 1.0128901086093429e+05 2.1031362485684946e+05 5.7903516848307881e+03 -999 1.25770106e-01 3.977484976e-01 -7.61796200e-02
 26 2 119662 1.8261711080835198e+05 1.0726598365540332e+05 1.6209140422308536e-14 9.4845869009752598e+04 1.8957955677122166e+05 5.3380633306856125e+03 -999 1.26007558e-01 3.945620145e-01 -7.63180908e-02
 27 2 119662 1.5625857868049538e+05 1.0101772320993252e+05 1.6019944510426688e-14 8.5308523248598605e+04 1.6162339000604535e+05 4.9376152532919887e+03 -999 1.26265414e-01 3.908043442e-01 -7.64742643e-02
 28 2 119662 1.4670846998366708e+05 9.4523631428118737e+04 1.5821578830391004e-14 7.8481528904819817e+04 1.4946014518772304e+05 4.5857164220586492e+03 -999 1.26508448e-01 3.869223661e-01 -7.66290966e-02
 29 2 119662 1.5803152588876823e+05 9.1752053318950871e+04 1.5627483235233653e-14 7.6229237856288368e+04 1.6222041195882205e+05 4.2815428838547768e+03 -999 1.26718705e-01 3.832570078e-01 -7.67694029e-02
 30 2 119662 1.4862671407209639e+05 8.4533568790774181e+04 1.5494645693661776e-14 7.1744143578994685e+04 1.5519345754373350e+05 4.0207862572605845e+03 -999 1.26850189e-01 3.807911137e-01 -7.68594507e-02
 31 2 119662 1.2757653809034690e+05 7.9197784397419091e+04 1.5301221809867122e-14 6.5711976932742851e+04 1.3385806778955582e+05 3.7228691401515698e+03 -999 1.26977377e-01 3.778884556e-01 -7.69484809e-02
 32 2 119662 1.0639187619171248e+05 7.4947186586143216e+04 1.5057312600157231e-14 5.8949686866738375e+04 1.1032373647702314e+05 3.4531091007773034e+03 -999 1.27124424e-01 3.744277991e-01 -7.70525346e-02
 33 2 119662 9.8338433565510815e+04 7.0755061522377131e+04 1.4812315039493777e-14 5.3864354659086341e+04 9.9917998288207120e+04 3.2142499361070768e+03 -999 1.27265743e-01 3.709880946e-01 -7.71537646e-02
 34 2 119662 1.0747868522458480e+05 7.0785327062050084e+04 1.4591978066789159e-14 5.2031441673239970e+04 1.1134595405448960e+05 3.0071636391137308e+03 -999 1.27388512e-01 3.679072757e-01 -7.72420275e-02
 35 2 119662 1.0495195281367809e+05 6.5598995687051647e+04 1.4427486553920955e-14 5.0035822026355112e+04 1.0816928565828764e+05 2.8264549711233162e+03 -999 1.27481881e-01 3.655122593e-01 -7.73084926e-02
 36 2 119662 8.9444169847145065e+04 6.4288645169606178e+04 1.4224773060179984e-14 4.5674035517108030e+04 9.4304657885240944e+04 2.6131481431184716e+03 -999 1.27562448e-01 3.630135414e-01 -7.73658803e-02
 37 2 119662 7.1991139199068115e+04 5.8289663729769360e+04 1.3992557095722710e-14 4.0446757112717001e+04 7.5713085922176644e+04 2.4220547283366168e+03 -999 1.27656278e-01 3.601209221e-01 -7.74324089e-02
 38 2 119662 6.3055575904844212e+04 5.3266256000224195e+04 1.3720510695852647e-14 3.6176285753348391e+04 6.3995044483826772e+04 2.2516323766523788e+03 -999 1.27759956e-01 3.569570193e-01 -7.75052810e-02
 39 2 119662 6.6653187787467512e+04 5.1924804648557307e+04 1.3450131782863517e-14 3.4179852232838050e+04 6.8453996972242530e+04 2.1045186207371175e+03 -999 1.27859478e-01 3.539417921e-01 -7.75744638e-02
 40 2 119662 6.5952244160140617e+04 4.9958312223665620e+04 1.3260259773007793e-14 3.2794692767434455e+04 6.8476684722030637e+04 1.9774043138490704e+03 -999 1.27931913e-01 3.517430721e-01 -7.76242397e-02
 41 2 119662 5.6126692302002295e+04 4.7596059726145475e+04 1.3045925125676017e-14 3.0160189015090637e+04 5.9389822714376278e+04 1.8093120176649891e+03 -999 1.27993575e-01 3.494314127e-01 -7.76681914e-02
 42 2 119662 4.4580306561513411e+04 4.4806973368823361e+04 1.2786207577984309e-14 2.7088364233009863e+04 4.7040348157054294e+04 1.6613300835818125e+03 -999 1.28068214e-01 3.466449443e-01 -7.77218496e-02
 43 2 119662 3.8121075143864313e+04 4.1836500358001940e+04 1.2491916821806280e-14 2.4391156245399918e+04 3.8789898912811965e+04 1.5301394286405593e+03 -999 1.28151119e-01 3.435751369e-01 -7.77814512e-02
 44 2 119662 3.8342085539794498e+04 4.0409569340684204e+04 1.2221874480045619e-14 2.2919690028992347e+04 3.9171443337535580e+04 1.4164446495020338e+03 -999 1.28225975e-01 3.408339691e-01 -7.78347312e-02
 45 2 119662 3.9776917213924484e+04 4.0346258323456379e+04 1.1999270466838348e-14 2.2106754740748565e+04 4.1606496813233003e+04 1.3182872337854087e+03 -999 1.28289929e-01 3.385181354e-01 -7.78795065e-02
 46 2 119662 3.3888691405721329e+04 3.7891218507434802e+04 1.1784288414377914e-14 2.0683122068035333e+04 3.5847958958880707e+04 1.1935433000038722e+03 -999 1.28339976e-01 3.362279040e-01 -7.79167869e-02
 47 2 119662 2.7511664754179961e+04 3.5752826874108338e+04 1.1510581381849985e-14 1.9118145468736198e+04 2.8864622453497617e+04 1.0832980460260803e+03 -999 1.28400104e-01 3.334849629e-01 -7.79618746e-02
 48 2 119662 2.3312940082677072e+04 3.3874141434250443e+04 1.1212440996718153e-14 1.7633407973759793e+04 2.3599782002783621e+04 9.8666550455629238e+02 -999 1.28469969e-01 3.303333292e-01 -7.80136353e-02
 49 2 119662 2.2302520002985715e+04 3.2550221470044704e+04 1.0931354491461328e-14 1.6596631039465992e+04 2.2318084713914308e+04 9.0557093239008054e+02 -999 1.28537862e-01 3.273265338e-01 -7.80623132e-02
 50 2 119662 2.2087843124029296e+04 3.1710244780582590e+04 1.0672469375711052e-14 1.5873747487693880e+04 2.2320573438184230e+04 8.3726473477838954e+02 -999 1.28598650e-01 3.246838800e-01 -7.81040812e-02
 51 2 119662 1.9681412714464801e+04 3.0387654936878953e+04 1.0437043473539458e-14 1.5045094182302879e+04 1.9926317005613146e+04 7.5711681617316947e+02 -999 1.28639669e-01 3.220683904e-01 -7.81332909e-02
 52 2 119662 1.7131737915633814e+04 2.8994211698301355e+04 1.0152851092856056e-14 1.4091686976457986e+04 1.7163185113012874e+04 6.8449678210544982e+02 -999 1.28686381e-01 3.189223353e-01 -7.81655811e-02
 53 2 119662 1.5252719570413245e+04 2.7573318520690274e+04 9.8065084566963566e-15 1.3074416346736261e+04 1.5006007797910363e+04 6.3018748265275588e+02 -999 1.28738380e-01 3.152358414e-01 -7.81980670e-02
 54 2 119662 1.4310613513489852e+04 2.6385727069698467e+04 9.4767166043401270e-15 1.2196940757340766e+04 1.4049112789037412e+04 5.8292781038947714e+02 -999 1.28786851e-01 3.116270242e-01 -7.82224934e-02
 55 2 119662 1.3737271097550150e+04 2.5431174691676188e+04 9.1793149516761262e-15 1.1475851953596110e+04 1.3629347322479754e+04 5.4746619264093727e+02 -999 1.28829161e-01 3.083347421e-01 -7.82375178e-02
 56 2 119662 1.2609250510734209e+04 2.4343542312340989e+04 8.8929458926545897e-15 1.0727580699160515e+04 1.2640449826855824e+04 5.1276021816714604e+02 -999 1.28847398e-01 3.047878550e-01 -7.82227617e-02
 57 2 119662 1.1458666650371506e+04 2.3121379545196556e+04 8.5681049645607287e-15 9.8679918526686852e+03 1.1656790726827872e+04 4.8930263552829712e+02 -999 1.28866541e-01 3.003558426e-01 -7.81908261e-02
 58 2 119662 1.0578360501490468e+04 2.1861980766328375e+04 8.1996278253617439e-15 8.9991238882416910e+03 1.1020061457103042e+04 4.7320211514792629e+02 -999 1.28889621e-01 2.951566838e-01 -7.81338232e-02
 59 2 119662 1.0092076752521312e+04 2.0799936828814272e+04 7.8580807800527676e-15 8.3247636586154949e+03 1.0820560070974561e+04 4.6735852315807580e+02 -999 1.28920720e-01 2.900704007e-01 -7.80578657e-02
 60 2 119662 9.8618765382099173e+03 1.9941413911639003e+04 7.5765516614383286e-15 7.8523437002445762e+03 1.0858080688372025e+04 4.6764162766666163e+02 -999 1.28965161e-01 2.853047573e-01 -7.79721063e-02
 61 2 119662 9.4368946815100480e+03 1.8964086805455649e+04 7.2738261174631929e-15 7.3753997172492236e+03 1.0710475026858478e+04 4.8169998048211357e+02 -999 1.29050230e-01 2.795085618e-01 -7.78261335e-02
 62 2 119662 9.2438026157861077e+03 1.7897449308724506e+04 6.9542339071386551e-15 7.0330613424898465e+03 1.0755945156906932e+04 5.1822184829679657e+02 -999 1.29238303e-01 2.719592900e-01 -7.76291717e-02
 63 2 119662 9.3796374654321407e+03 1.6907711675898550e+04 6.6732023308398986e-15 6.9493124104153403e+03 1.1032924571733329e+04 5.4259762196522786e+02 -999 1.29597941e-01 2.632209757e-01 -7.74116572e-02
 64 2 119662 9.6715287232180654e+03 1.6140561325017532e+04 6.4604036628729982e-15 7.0476005081260037e+03 1.1376550059072219e+04 5.6022395371508856e+02 -999 1.30135508e-01 2.547457228e-01 -7.72436606e-02
 65 2 119662 9.9650055005493505e+03 1.5524861996914957e+04 6.3256689628456125e-15 7.1849657864456558e+03 1.1675442008336056e+04 5.7271524590060824e+02 -999 1.30853784e-01 2.465565451e-01 -7.71550351e-02
 66 2 119662 1.0038039675446847e+04 1.4639077056001075e+04 6.1708543873123032e-15 6.9973961492901071e+03 1.1702697594181309e+04 6.1143086402288429e+02 -999 1.32326710e-01 2.351148989e-01 -7.72729522e-02
 67 2 119662 1.0052498300469915e+04 1.3768702825160150e+04 6.0996839280698008e-15 6.7510865530338297e+03 1.1575102494912639e+04 7.3591067615253746e+02 -999 1.34931165e-01 2.197690123e-01 -7.78129273e-02
 68 2 119662 9.9016162415749986e+03 1.3244721853008252e+04 5.9515408309649437e-15 6.4721672406552161e+03 1.1236094290415756e+04 1.0850698135542791e+03 -999 1.38367696e-01 2.043588620e-01 -7.89895742e-02
 69 2 119662 9.6320250343399875e+03 1.2958026630768205e+04 5.7846404617787441e-15 6.2728299751661898e+03 1.0765010623688027e+04 1.8645916780808427e+03 -999 1.42183552e-01 1.901989252e-01 -8.07966656e-02
 70 2 119662 9.2941046806633713e+03 1.2839711142616889e+04 5.5606660482243431e-15 6.1944309202020577e+03 1.0220342967760522e+04 2.8551507195498480e+03 -999 1.46148239e-01 1.768500976e-01 -8.32326603e-02
 71 2 119662 8.4140701490606971e+03 1.1748014527380128e+04 5.2156841724054022e-15 6.0608845352052176e+03 9.0163302069925376e+03 4.5500445825301904e+03 -999 1.51783242e-01 1.569800830e-01 -8.81880978e-02
 72 2 119662 7.5145634863807245e+03 1.0967053464995615e+04 4.7504658136446336e-15 5.9946347420746952e+03 7.8553881169993265e+03 5.9340476841265981e+03 -999 1.54890110e-01 1.390493100e-01 -9.39115066e-02
 73 2 119662 6.7662400524369559e+03 1.0221864565419080e+04 4.3561989454424226e-15 5.8663153096501846e+03 6.9519905017512256e+03 7.9946800176177494e+03 -999 1.53876222e-01 1.249394930e-01 -9.88920501e-02
 74 2 119662 6.3435943454105027e+03 1.0282028343379143e+04 4.0288456533962276e-15 5.3365257523967894e+03 6.4907055438031994e+03 1.1617288057740716e+04 -999 1.48937051e-01 1.139751482e-01 -1.02308003e-01
 75 2 119662 6.1625208918957433e+03 1.0460069174704951e+04 3.7476191213042862e-15 4.7907316171391949e+03 6.2890345620844764e+03 1.3256150267847586e+04 -999 1.46010332e-01 1.107265465e-01 -1.02907004e-01
 76 2 119662 5.2499643995663127e+03 9.9635244120715452e+03 3.5672487342561688e-15 3.9293035448763399e+03 5.2430394215223632e+03 1.3468245094839520e+04 -999 1.38517333e-01 1.046258700e-01 -1.03270841e-01
 77 2 119662 4.5950765409885262e+03 9.7646068894223390e+03 3.4696147261668893e-15 3.2745054945864390e+03 4.5700735311873605e+03 1.1377517173403203e+04 -999 1.30870967e-01 9.923707093e-02 -1.02895326e-01
 78 2 119662 4.2059212351177885e+03 9.0460771143079637e+03 3.3681988474388984e-15 2.9228526161352370e+03 4.1744895904596497e+03 8.6362134244456975e+03 -999 1.26172424e-01 9.532410833e-02 -1.02328436e-01
 79 2 119662 4.0376020530554752e+03 8.3652517362139406e+03 3.2229926047979489e-15 2.9470603235854442e+03 3.9851774583357683e+03 6.3201022385464448e+03 -999 1.25215163e-01 9.361798490e-02 -1.02212644e-01
 80 2 119662 3.9882005350764316e+03 7.7770541278022338e+03 3.2084610020084705e-15 3.1669704307505431e+03 3.8949589617889319e+03 4.8796459664347540e+03 -999 1.24990616e-01 9.157121022e-02 -1.02287656e-01
 81 2 119662 3.4828443438912373e+03 6.2860442838065383e+03 3.4228927269728660e-15 3.1349950705218043e+03 3.3708509725635286e+03 3.8046685657661678e+03 -999 1.29417440e-01 8.745160415e-02 -1.03936109e-01
 82 2 119662 3.7227234159773657e+03 5.7786604039220565e+03 3.6872472261649943e-15 3.3114697206583051e+03 3.5677065338734924e+03 5.3198511168128653e+03 -999 1.41265792e-01 8.276053424e-02 -1.08320447e-01
 83 2 119662 4.3139026564327887e+03 6.9259406005371757e+03 3.8087937917603544e-15 3.5437317267379481e+03 4.1863375678495777e+03 7.7031336720538638e+03 -999 1.57687460e-01 7.860179388e-02 -1.15150888e-01
 84 2 119662 5.0011172196528159e+03 9.5864400661111704e+03 3.8001461196338336e-15 3.4223157150874399e+03 4.8807194639955451e+03 9.2598799674178445e+03 -999 1.75398392e-01 7.498899698e-02 -1.23651578e-01
 85 2 119662 5.1890959372197340e+03 9.7806193933263767e+03 3.5498964070881347e-15 3.0609446650337163e+03 5.5033263325646049e+03 1.2680327869380208e+04 -999 1.83986493e-01 7.351100670e-02 -1.28366278e-01
 86 2 119662 3.9257972492644412e+03 6.0533767075913165e+03 3.4902548148857163e-15 2.6938995375456748e+03 3.9857770447162948e+03 3.0510065860806350e+04 -999 1.97074621e-01 7.146462022e-02 -1.35894321e-01
 87 2 119662 3.3952868924027102e+03 4.4611436032966376e+03 3.5290356884420252e-15 2.7722125699659809e+03 3.5319907557282363e+03 2.0174000075206834e+04 -999 2.08418217e-01 6.972194228e-02 -1.43061555e-01
 88 2 119662 3.0317092681437821e+03 7.9097322607616234e+03 3.3723316262511790e-15 2.8634031404533089e+03 3.3914263741871905e+03 1.0116776485850287e+04 -999 2.14681236e-01 6.856884362e-02 -1.47258398e-01
 89 2 119662 2.9317277686665589e+03 7.3307901726143455e+03 3.1727330465336214e-15 2.5096128624904554e+03 3.1854411632078027e+03 6.9498360614399971e+03 -999 2.16238846e-01 6.824828925e-02 -1.48308594e-01
 90 2 119662 2.8453179262634440e+03 7.6639561283549201e+03 3.0992935454944936e-15 2.4576148013859233e+03 3.1645819836793353e+03 6.6455855365597954e+03 -999 2.17774691e-01 6.792646919e-02 -1.49339407e-01
 91 2 119662 2.5139039761472923e+03 2.7672865077777874e+03 3.4880979498015656e-15 2.2322041808209942e+03 2.4361027475830633e+03 9.2253827460676530e+03 -999 2.30011623e-01 6.523504091e-02 -1.57431736e-01
 92 2 119662 2.4157280958463266e+03 2.7549687445842937e+03 3.6964338405591258e-15 2.0644142723853906e+03 2.2632160179151701e+03 1.1803969783994497e+04 -999 2.42635715e-01 6.225905180e-02 -1.64982619e-01
 93 2 119662 2.3008335213744417e+03 3.0009357836600734e+03 3.8057983536055431e-15 2.0378223090262111e+03 2.1935195764923546e+03 1.4988841335141702e+04 -999 2.56345023e-01 5.914745780e-02 -1.71928459e-01
 94 2 119662 2.3149085252423233e+03 3.3690633737391272e+03 4.0081149073117919e-15 2.0620378992739606e+03 2.2701215419639457e+03 1.8997280379788350e+04 -999 2.71485428e-01 5.602893576e-02 -1.78226645e-01
 95 2 119662 2.6020799260214790e+03 3.6656709171677185e+03 4.5617570407402331e-15 2.0559710220890479e+03 2.5964793432277147e+03 1.9955250366038643e+04 -999 2.88297626e-01 5.302514908e-02 -1.83815445e-01
 96 2 119662 2.1511717228645366e+03 3.2456993103785994e+03 3.7104307577747177e-15 1.5712121425156515e+03 2.1356796688838485e+03 1.9341142375809726e+04 -999 3.04225133e-01 5.043683441e-02 -1.87307229e-01
 97 2 119662 2.0605097917989715e+03 2.7554476783048067e+03 3.5812027049973473e-15 1.2218803021518386e+03 2.0344804700321349e+03 1.6427798173887248e+04 -999 3.22501126e-01 4.790321414e-02 -1.90578250e-01
 98 2 119662 2.1131372606256950e+03 2.4080462742094760e+03 3.7033684560981097e-15 1.0160854009927009e+03 2.1047552525401916e+03 1.4772102327519500e+04 -999 3.37903247e-01 4.612302953e-02 -1.92737665e-01
 99 2 119662 2.2071714613305594e+03 2.1885326804826468e+03 3.9748151039211778e-15 9.0318782554701897e+02 2.2309237258751982e+03 1.2926035592773160e+04 -999 3.49318967e-01 4.500714683e-02 -1.94034471e-01
 100 2 119662 2.3091591021270506e+03 2.0551520105434829e+03 4.3492561735438045e-15 8.3352531511183520e+02 2.3633045228269475e+03 1.1339583348699716e+04 -999 3.57853567e-01 4.427882315e-02 -1.94860559e-01
 101 2 119662 1.9688659425513756e+03 1.8118683051405260e+03 1.6126329578434274e-13 6.9918489670647864e+02 1.9825736354232392e+03 8.9165066203097740e+03 -999 3.74414486e-01 4.325123915e-02 -1.96039629e-01
 102 2 119662 1.7781754157517589e+03 1.5956939313219921e+03 4.0354486784989385e-13 5.7298587023379082e+02 1.7705833168329877e+03 7.1155010765344132e+03 -999 3.94412604e-01 4.214978316e-02 -1.97102699e-01
 103 2 119662 1.7363029950381713e+03 1.4549384887522026e+03 6.1518324796074581e-13 4.8260609173765727e+02 1.7395139779825354e+03 6.1141648326488157e+03 -999 4.13344080e-01 4.127602762e-02 -1.97678277e-01
 104 2 119662 1.8035017147605236e+03 1.3795110998955072e+03 7.3187199707702920e-13 4.2857279839227579e+02 1.8386723026574668e+03 5.3905338871783943e+03 -999 4.28667876e-01 4.070427635e-02 -1.97808630e-01
 105 2 119662 1.9228529970294767e+03 1.3579307982456919e+03 7.8995364688019569e-13 4.0027434683594504e+02 1.9973048900767674e+03 4.6163688337197918e+03 -999 4.39676986e-01 4.037381415e-02 -1.97709427e-01
 106 2 119662 1.5185278006221429e+03 1.1855735025125889e+03 6.3247011802757597e-13 3.2999941873777937e+02 1.5215098113756476e+03 4.2135539590180379e+03 -999 4.63628344e-01 3.990058740e-02 -1.96521876e-01
 107 2 119662 1.2831062506042274e+03 1.0451474918292538e+03 5.1013009994474321e-13 2.7492303161632543e+02 1.2520407496194430e+03 3.9678243329501684e+03 -999 4.94577515e-01 3.945659784e-02 -1.94410440e-01
 108 2 119662 1.2194404474698301e+03 9.4835872434451119e+02 4.6150791441289063e-13 2.2052467566363580e+02 1.1977008533696489e+03 3.6824884939371777e+03 -999 5.24181417e-01 3.929028359e-02 -1.91530757e-01
 109 2 119662 1.3509501657124870e+03 9.3753791033246341e+02 4.4560365010141447e-13 1.9691209689892409e+02 1.3597646488812920e+03 3.3521455007299401e+03 -999 5.47472987e-01 3.934262066e-02 -1.88681599e-01
 110 2 119662 1.4547673730865126e+03 9.4485427623892940e+02 4.5124413241350634e-13 1.8954867158917023e+02 1.4739677853150474e+03 3.0019938118337650e+03 -999 5.59544337e-01 3.947618348e-02 -1.86964288e-01
 111 2 119662 1.1901551771352520e+03 8.7355571199575627e+02 5.6462626863579632e-13 1.7871593274575750e+02 1.1761877020530683e+03 3.1735567715182056e+03 -999 5.73437931e-01 3.955550609e-02 -1.84486565e-01
 112 2 119662 9.7829992848888094e+02 8.1497293814588636e+02 8.7742184315056473e-13 1.7080326916031353e+02 9.4286592562523015e+02 3.3550445487918364e+03 -999 5.89019807e-01 3.948522207e-02 -1.81843242e-01
 113 2 119662 8.1026781176557301e+02 7.3266975454810722e+02 1.2508166302786725e-12 1.6220859225828607e+02 7.6229125098567738e+02 3.5519889402405252e+03 -999 6.08658015e-01 3.914131997e-02 -1.78695873e-01
 114 2 119662 7.6329633529531213e+02 7.0139752069819838e+02 1.3955132694241827e-12 1.5950073336753243e+02 7.1410156088984456e+02 3.4457227183872028e+03 -999 6.18906605e-01 3.876578628e-02 -1.77059276e-01
 115 2 119662 7.2861602030254346e+02 6.7356995308528076e+02 1.4708398612987663e-12 1.5822562658603050e+02 6.8086913226293473e+02 3.4675011990696194e+03 -999 6.29182110e-01 3.828334462e-02 -1.75425046e-01
 116 2 119662 6.8365684455571682e+02 7.0724315156611783e+02 1.6237982946504469e-12 1.5576951181424360e+02 6.3611410318943570e+02 5.5345350250767597e+03 -999 6.38581881e-01 3.757548836e-02 -1.74335424e-01
 117 2 119662 6.4261216435565984e+02 7.2056143142901090e+02 2.2227865607405530e-12 1.5480523858693897e+02 5.9578236843514310e+02 5.3022380052677900e+03 -999 6.49499220e-01 3.671579034e-02 -1.73088282e-01
 118 2 119662 6.0660169802556652e+02 7.0017290852327767e+02 2.9895133496815841e-12 1.5696856472614013e+02 5.6236476559963728e+02 4.8948312323773689e+03 -999 6.61970453e-01 3.567559694e-02 -1.71677692e-01
 119 2 119662 5.8561841230690470e+02 6.4825779338417988e+02 3.6362804727360073e-12 1.5978338627092623e+02 5.4152921429804076e+02 4.8904403826798507e+03 -999 6.76723562e-01 3.435108520e-02 -1.69978729e-01
 120 2 119662 5.7436680651326344e+02 6.3013661770990484e+02 3.8313003872070119e-12 1.6088594324669040e+02 5.3316852772951688e+02 3.9845357119180944e+03 -999 6.84179408e-01 3.360692396e-02 -1.69047212e-01
 121 2 119662 5.1325658682763833e+02 6.3650064575039266e+02 3.2539943259871755e-12 1.6703231142598355e+02 4.7362892813804410e+02 4.4489404621117301e+03 -999 6.94047947e-01 3.249824959e-02 -1.67878940e-01
 122 2 119662 4.7457444912488518e+02 6.4537592733282190e+02 3.2210650598586577e-12 1.8169345998725433e+02 4.3772973100553156e+02 4.4163385685595476e+03 -999 7.05454415e-01 3.121846798e-02 -1.66610446e-01
 123 2 119662 4.5680287329833442e+02 6.6136798166071151e+02 3.6018155306824702e-12 2.0742293243296024e+02 4.2459648129308084e+02 4.3708114024243005e+03 -999 7.18156185e-01 2.976009592e-02 -1.65127583e-01
 124 2 119662 4.4858523173630283e+02 6.7196315534823418e+02 3.8193699529210382e-12 2.2464025287592972e+02 4.1793338073161999e+02 4.0986354982263692e+03 -999 7.26139952e-01 2.881521715e-02 -1.64015715e-01
 125 2 119662 4.4612180900594421e+02 6.7855191828940906e+02 4.0981808955940539e-12 2.3389265905386796e+02 4.1454671114705621e+02 4.0819459892465061e+03 -999 7.33313726e-01 2.794159338e-02 -1.63034917e-01
 126 2 119662 4.3051658813458027e+02 6.1345623951691289e+02 3.3659436636480417e-12 2.0824159165001510e+02 3.9520239987512917e+02 3.5242168128670819e+03 -999 7.37236615e-01 2.753790215e-02 -1.62568643e-01
 127 2 119662 4.3852438945123652e+02 5.4578405709430126e+02 2.7638955949840841e-12 1.8333435266742890e+02 4.0060881879248461e+02 3.7444930539836364e+03 -999 7.42397605e-01 2.699349012e-02 -1.61928992e-01
 128 2 119662 4.5951572109337462e+02 4.8437898470804572e+02 2.4860376446189733e-12 1.6159798497488623e+02 4.2271839215554951e+02 3.7325872748676752e+03 -999 7.49188820e-01 2.626732206e-02 -1.61077787e-01
 129 2 119662 4.6317060224120934e+02 4.7019606963844080e+02 2.4786600521828342e-12 1.5234683720224530e+02 4.2636254796423458e+02 3.6161893380727124e+03 -999 7.53705703e-01 2.578347768e-02 -1.60541920e-01
 130 2 119662 4.7805269921118958e+02 4.6119451296133877e+02 2.4886964882099109e-12 1.4478107100712717e+02 4.4198822563324683e+02 3.5892144956178086e+03 -999 7.56779446e-01 2.543914192e-02 -1.60208596e-01
 131 2 119662 4.3740934275940396e+02 4.2852131278543231e+02 1.8696886326109856e-12 1.3802353871603441e+02 4.0038848184958420e+02 3.6886250050313329e+03 -999 7.60870850e-01 2.494053507e-02 -1.59560903e-01
 132 2 119662 4.2168651634750080e+02 4.0228875575060960e+02 1.4568335366316053e-12 1.3658935186622173e+02 3.8509275675641402e+02 3.7052751934918729e+03 -999 7.65938451e-01 2.435165476e-02 -1.58763255e-01
 133 2 119662 4.1276556115070434e+02 3.9072045969020752e+02 1.2992766108897089e-12 1.3712429965149317e+02 3.7646099375806943e+02 3.8485943728046877e+03 -999 7.71993211e-01 2.368116401e-02 -1.57832738e-01
 134 2 119662 4.1552454129311258e+02 3.8338989812555053e+02 1.2710769523297151e-12 1.3509690031478061e+02 3.8018138035993314e+02 3.5389018443759546e+03 -999 7.74978547e-01 2.336707311e-02 -1.57378667e-01
 135 2 119662 4.2179433681071532e+02 3.8542954377798139e+02 1.2524294002477317e-12 1.3171751631735160e+02 3.8440426326758802e+02 3.8097832891937237e+03 -999 7.78348236e-01 2.301570517e-02 -1.56873531e-01
 136 2 119662 3.9423544496316714e+02 3.6267555205001298e+02 9.9843026191520852e-13 1.3345001617692174e+02 3.5730402198651808e+02 3.5236258297774862e+03 -999 7.81197274e-01 2.271423645e-02 -1.56434387e-01
 137 2 119662 3.8118813628582342e+02 3.4625142362414130e+02 1.0344798040718510e-12 1.3663578483108401e+02 3.4474582974103856e+02 3.6636942074970971e+03 -999 7.85380987e-01 2.227386627e-02 -1.55783333e-01
 138 2 119662 3.6766163495370694e+02 3.3647172013727868e+02 1.2071640002251894e-12 1.3552725438983273e+02 3.3163354458327291e+02 3.6699781613343025e+03 -999 7.89370504e-01 2.184964567e-02 -1.55143018e-01
 139 2 119662 3.7902046813245846e+02 3.4514223087995015e+02 1.3476498460004175e-12 1.3226777028981431e+02 3.4109083092509860e+02 3.5758746022674763e+03 -999 7.93052349e-01 2.145005971e-02 -1.54523632e-01
 140 2 119662 3.8294466538743472e+02 3.4566116794322062e+02 1.3858706972656432e-12 1.2768550118280545e+02 3.4519766061980272e+02 3.2705686334622715e+03 -999 7.94479295e-01 2.129032119e-02 -1.54258742e-01
 141 2 119662 3.2936199204655014e+02 3.1131733678117649e+02 1.0083090937862209e-12 1.2551060567654676e+02 2.9120235685470726e+02 3.7038624145897102e+03 -999 7.97989718e-01 2.092007481e-02 -1.53698226e-01