TITLE = "005.02 ALPHA 3.10 GRIDLEVEL 3"

VARIABLES = "ITERATION"  "GRID_LEVEL"  "GRID_SIZE"  "CONTINUITY"  "MOMENTUMX"  "MOMENTUMY"  "MOMENTUMZ"  "ENERGY"  "TURB1"  "TURB2"  "CL_TOT"  "CD_TOT"  "CM_TOT"

DATASETAUXDATA ParticipantID   = "005"
DATASETAUXDATA SubmissionDate  = "10-31-2024"
DATASETAUXDATA Name            = "Jeffrey A. Housman"
DATASETAUXDATA Email           = "jeffrey.a.housman@nasa.gov"
DATASETAUXDATA Institution     = "NASA Ames Research Center"
DATASETAUXDATA SolverName      = "LAVA Curvilinear"
DATASETAUXDATA BasicAlgorithm  = "RANS"
DATASETAUXDATA TurbulenceModel = "SA-RC-comp-neg"
DATASETAUXDATA GridId          = "Multiblock"
DATASETAUXDATA Discretization  = "Finite difference"
DATASETAUXDATA Order           = "2"
DATASETAUXDATA DistanceCalc    = "Exact"
DATASETAUXDATA Notes           = " "

ZONE T = "005.02 - Alpha 3.10 - Grid Level 3"
AUXDATA Tstatic         = "271.0"
AUXDATA Deltat          = "-999"
AUXDATA GridFileName    = "ONERA-OAT15A_230mmChord_780mmSpan_upZ_2024_06_25-Structured_23mm_Level-3.x"
AUXDATA Misc            = " "
 0 3 234820 2.6744129867409961e+05 6.4528776572448132e+05 4.4403294074311864e-14 2.4275062936387354e+05 2.7310729263458896e+05 1.0405655200998230e+06 -999 1.04380672e-02 6.040111804e-01 -6.31901892e-03
 1 3 234820 3.7726742807709641e+05 5.0441546495641355e+05 3.9157079279304637e-14 1.9698644935825001e+05 3.6544474370200589e+05 6.7309734147168195e+05 -999 4.71037996e-02 5.781078779e-01 -2.18239284e-02
 2 3 234820 4.5880562111724698e+05 4.4468288402185199e+05 3.5226772836151368e-14 2.1869718973382789e+05 4.3914320792459190e+05 4.3578987082247384e+05 -999 8.81897892e-02 5.689418630e-01 -3.89793804e-02
 3 3 234820 5.3843436424860812e+05 4.0523168069757149e+05 3.2189736495881288e-14 2.5720685352487973e+05 5.1448313115494931e+05 2.8147868385809625e+05 -999 1.24110710e-01 5.671974560e-01 -5.44797580e-02
 4 3 234820 6.1531257744838682e+05 3.7486540242051450e+05 2.9807494862786075e-14 3.0409143657159392e+05 5.9322962315813091e+05 1.7847350659638981e+05 -999 1.55434411e-01 5.698306315e-01 -6.65015173e-02
 5 3 234820 6.9038577737361728e+05 3.7833880963837914e+05 2.7954352487716390e-14 3.5521987102643523e+05 6.7693899427320017e+05 9.6247872915217740e+04 -999 1.79898923e-01 5.738219141e-01 -7.55799245e-02
 6 3 234820 6.3618456432987668e+05 4.2305331696652359e+05 2.6563343859612351e-14 3.7782160632425430e+05 6.2611394689599378e+05 6.7552913008038566e+04 -999 1.96443744e-01 5.711996353e-01 -8.23793813e-02
 7 3 234820 6.5099357311387907e+05 4.4379002900124772e+05 2.5299480290998572e-14 3.9371938047266525e+05 6.3647823383446585e+05 5.3777922167804099e+04 -999 2.09804036e-01 5.645399362e-01 -8.83963365e-02
 8 3 234820 7.0782897490517213e+05 4.4409514279285667e+05 2.4421230743939162e-14 4.0096781402191223e+05 7.1085144313626015e+05 4.5879883057762745e+04 -999 2.20261642e-01 5.540302957e-01 -9.29558816e-02
 9 3 234820 8.2342145643220306e+05 4.6270457960758015e+05 2.3803948394526157e-14 4.3262054764844471e+05 8.4478519014653459e+05 4.0850484305880236e+04 -999 2.30932098e-01 5.399205443e-01 -9.70992343e-02
 10 3 234820 8.1031125577709649e+05 4.2367117124511930e+05 2.3420158745577035e-14 4.1761027860379592e+05 8.3982214509215916e+05 3.6764925711291733e+04 -999 2.37184637e-01 5.308476637e-01 -9.93873713e-02
 11 3 234820 7.1410241557326680e+05 3.8840129142892087e+05 2.2915831992076007e-14 4.0103569756263058e+05 7.2455566099163610e+05 3.3190549976395152e+04 -999 2.44910784e-01 5.189307054e-01 -1.02331535e-01
 12 3 234820 6.7284883896128275e+05 4.0292877197471651e+05 2.2480893156288863e-14 3.8654349567691010e+05 6.7916298475660407e+05 3.0269670214452730e+04 -999 2.50533067e-01 5.096649494e-01 -1.04456294e-01
 13 3 234820 7.0717714631495555e+05 3.7823323276399076e+05 2.2103103782355411e-14 3.8826956663391797e+05 7.1682695582719753e+05 2.7913467698148146e+04 -999 2.55755738e-01 5.002073673e-01 -1.06440619e-01
 14 3 234820 6.9534446284358099e+05 3.6390602051690308e+05 2.1814085587286749e-14 3.6912945626604388e+05 7.1574344201487792e+05 2.5914234818998062e+04 -999 2.58659194e-01 4.940674707e-01 -1.07600484e-01
 15 3 234820 7.3714809195492521e+05 3.9457866346089757e+05 2.1560413444497170e-14 3.8339785983156896e+05 7.6387847387002269e+05 2.4337665632530057e+04 -999 2.61548634e-01 4.873418088e-01 -1.08836046e-01
 16 3 234820 6.6106641489900288e+05 3.8538054562888911e+05 2.1295270478687923e-14 3.5603352976495499e+05 6.8905371862684493e+05 2.2267887816903713e+04 -999 2.63502717e-01 4.820162488e-01 -1.09733345e-01
 17 3 234820 5.7173876075431251e+05 3.1726290603610489e+05 2.0986339053620760e-14 3.2433203995319852e+05 5.8281071272937278e+05 2.0578349786090901e+04 -999 2.65724691e-01 4.754727207e-01 -1.10758522e-01
 18 3 234820 5.6958766495661880e+05 3.2750208955742593e+05 2.0721068595539303e-14 3.1566123870277614e+05 5.8006906465845695e+05 1.9206839462068274e+04 -999 2.67680108e-01 4.690533330e-01 -1.11630073e-01
 19 3 234820 5.8319246770647529e+05 2.9606247993871162e+05 2.0527435481690043e-14 3.1112236595002341e+05 5.9392529356547911e+05 1.8022694430791056e+04 -999 2.69243822e-01 4.632679778e-01 -1.12277366e-01
 20 3 234820 6.0445319846290536e+05 3.0281552816966519e+05 2.0409814317879271e-14 3.0190020873818354e+05 6.3192408247364475e+05 1.6919178737682862e+04 -999 2.70320499e-01 4.587828187e-01 -1.12684174e-01
 21 3 234820 5.0899862166387506e+05 2.7158415556541382e+05 2.0202432208260739e-14 2.7808042740759853e+05 5.2953214441568160e+05 1.5589401359427437e+04 -999 2.71390355e-01 4.534464674e-01 -1.13054657e-01
 22 3 234820 4.5903030567052582e+05 2.6631151622355636e+05 2.0003626269458976e-14 2.6167854975996655e+05 4.6792547561214620e+05 1.4503591030647030e+04 -999 2.72380807e-01 4.480991004e-01 -1.13375899e-01
 23 3 234820 4.6493777203947469e+05 2.5141825133281224e+05 1.9812052686175568e-14 2.5285306721691962e+05 4.7055972316650976e+05 1.3590113588130933e+04 -999 2.73386390e-01 4.422321221e-01 -1.13688012e-01
 24 3 234820 4.6362160459523369e+05 2.4417438000982755e+05 1.9679786083589899e-14 2.4317346499284435e+05 4.7906473096594174e+05 1.2787186380107287e+04 -999 2.74040499e-01 4.380012959e-01 -1.13886511e-01
 25 3 234820 5.4226689535845723e+05 3.0367754906785715e+05 1.9550454230782763e-14 2.5733982335014941e+05 5.7654636619826220e+05 1.2096111910324138e+04 -999 2.74728810e-01 4.331890529e-01 -1.14098582e-01
 26 3 234820 4.4221175482332357e+05 2.6917502141516958e+05 1.9330642870249603e-14 2.2816079133278894e+05 4.7344348928725289e+05 1.1187914133504339e+04 -999 2.75192629e-01 4.291300673e-01 -1.14241063e-01
 27 3 234820 3.6876078735994932e+05 2.1854608217598629e+05 1.9097729609425266e-14 2.0527466044856975e+05 3.8248180578770186e+05 1.0423449760729227e+04 -999 2.75666536e-01 4.247575718e-01 -1.14391369e-01
 28 3 234820 3.5424278098214080e+05 2.0459694322586112e+05 1.8881609524133446e-14 1.9306823747598453e+05 3.5851900524249522e+05 9.7639353896887515e+03 -999 2.76139465e-01 4.201270609e-01 -1.14545612e-01
 29 3 234820 3.7010276054154185e+05 2.0285041113608252e+05 1.8741335929168053e-14 1.8756757207313683e+05 3.8539064836837194e+05 9.1962035252472833e+03 -999 2.76487897e-01 4.165048407e-01 -1.14661909e-01
 30 3 234820 4.3012402458067425e+05 2.4785648809612467e+05 1.8622748050568437e-14 1.9596251993856850e+05 4.5960716936692956e+05 8.6954924820992583e+03 -999 2.76844405e-01 4.126576741e-01 -1.14782401e-01
 31 3 234820 3.5387916979633132e+05 2.2237952192091924e+05 1.8419330855587796e-14 1.7492746546609799e+05 3.8348584106728062e+05 8.0023065722102237e+03 -999 2.77078376e-01 4.095466350e-01 -1.14857457e-01
 32 3 234820 2.8329333708641614e+05 1.8000646596166654e+05 1.8169423364825058e-14 1.5391857016686065e+05 3.0122002128745685e+05 7.4167734638246684e+03 -999 2.77349358e-01 4.059109437e-01 -1.14943865e-01
 33 3 234820 2.5352186226497713e+05 1.5802392327631972e+05 1.7912226107165485e-14 1.3915903427495682e+05 2.5817023279399602e+05 6.9060630275212561e+03 -999 2.77644250e-01 4.018932818e-01 -1.15036805e-01
 34 3 234820 2.6934900899359054e+05 1.5451769606199264e+05 1.7710410450085899e-14 1.3401942666255034e+05 2.7752308097320056e+05 6.4594489143084093e+03 -999 2.77905716e-01 3.982593240e-01 -1.15118615e-01
 35 3 234820 2.7812221736994537e+05 1.5586776204435297e+05 1.7575932154246872e-14 1.3080397838331120e+05 2.9378934576748230e+05 6.0678891459888027e+03 -999 2.78100801e-01 3.954991708e-01 -1.15179870e-01
 36 3 234820 2.3617406909302832e+05 1.3884104757300334e+05 1.7372720437399295e-14 1.1876926142760714e+05 2.5300455528155918e+05 5.5210483655034141e+03 -999 2.78269310e-01 3.926329692e-01 -1.15229565e-01
 37 3 234820 1.9139198309628884e+05 1.2561237215359422e+05 1.7121028086935629e-14 1.0562135445090303e+05 2.0363291982667905e+05 5.0525455136693345e+03 -999 2.78465993e-01 3.893213736e-01 -1.15287953e-01
 38 3 234820 1.6647130860462706e+05 1.1177633063484218e+05 1.6841344041970882e-14 9.3889305661458144e+04 1.7057130579965588e+05 4.6528218870758219e+03 -999 2.78685820e-01 3.856603624e-01 -1.15353631e-01
 39 3 234820 1.7288073865656665e+05 1.0871334808780049e+05 1.6592495208083793e-14 8.7604724646891598e+04 1.7761247316468964e+05 4.3067730900351526e+03 -999 2.78894090e-01 3.822276383e-01 -1.15416357e-01
 40 3 234820 1.8366089081993015e+05 1.0937647244993935e+05 1.6400185785160879e-14 8.4927153282715968e+04 1.9220396512816093e+05 4.0047893212958943e+03 -999 2.79074334e-01 3.792661909e-01 -1.15471500e-01
 41 3 234820 1.5536000886367238e+05 1.0030726840719249e+05 1.6178898819541476e-14 7.6848373876626807e+04 1.6673239330143403e+05 3.6080455154126189e+03 -999 2.79213445e-01 3.766125435e-01 -1.15511705e-01
 42 3 234820 1.2175661324115082e+05 9.0058571086060008e+04 1.5900394051897981e-14 6.7395185541761646e+04 1.3129539095654996e+05 3.2680671816424383e+03 -999 2.79385175e-01 3.734063081e-01 -1.15562275e-01
 43 3 234820 1.0066050685929081e+05 8.0866240076937233e+04 1.5583496976398477e-14 5.8732535656946609e+04 1.0464661077371148e+05 2.9741276664275929e+03 -999 2.79582631e-01 3.698054829e-01 -1.15621828e-01
 44 3 234820 9.9519512821783617e+04 7.7340928727460196e+04 1.5308330425288019e-14 5.3650685728848337e+04 1.0283852071392412e+05 2.7216454309771279e+03 -999 2.79769889e-01 3.664596886e-01 -1.15680237e-01
 45 3 234820 1.0297229069702716e+05 7.7096702791717180e+04 1.5074071543754803e-14 5.0805858129257511e+04 1.0857558025187856e+05 2.5056418012377130e+03 -999 2.79934874e-01 3.635439197e-01 -1.15734013e-01
 46 3 234820 8.7940450152911319e+04 7.0741104919082994e+04 1.4847925840463335e-14 4.6464239078732433e+04 9.4821633581162445e+04 2.2146074493630308e+03 -999 2.80060853e-01 3.609607712e-01 -1.15775086e-01
 47 3 234820 7.0297210677816664e+04 6.4500247571112217e+04 1.4555690820418342e-14 4.1484905812613884e+04 7.6786193865493333e+04 1.9718423948320913e+03 -999 2.80213406e-01 3.578825106e-01 -1.15826175e-01
 48 3 234820 5.6486578290687045e+04 5.8795370204387204e+04 1.4211421888734668e-14 3.6456506941877575e+04 6.0623768113779828e+04 1.7599298735685984e+03 -999 2.80395691e-01 3.542609804e-01 -1.15889395e-01
 49 3 234820 5.1283394598225605e+04 5.5339465171885073e+04 1.3883810229673664e-14 3.2849613986564043e+04 5.3792429823605176e+04 1.5864841314775310e+03 -999 2.80577337e-01 3.506911340e-01 -1.15955829e-01
 50 3 234820 4.9184600325217187e+04 5.3354181036227477e+04 1.3597286721733625e-14 3.0432805733289944e+04 5.1559656849444240e+04 1.4438964638778607e+03 -999 2.80739693e-01 3.475017462e-01 -1.16019567e-01
 51 3 234820 4.2893260534598623e+04 5.0570690443629566e+04 1.3341802859440894e-14 2.8182513771809168e+04 4.5522311364519745e+04 1.2587822048182936e+03 -999 2.80862290e-01 3.447032197e-01 -1.16060129e-01
 52 3 234820 3.5522774064123856e+04 4.7536398497178285e+04 1.3023610579584407e-14 2.5567057840121171e+04 3.7838965798290250e+04 1.1076882557183760e+03 -999 2.81014127e-01 3.412663612e-01 -1.16108811e-01
 53 3 234820 2.9197856336995523e+04 4.4394335565700196e+04 1.2629688995183706e-14 2.2781394378294561e+04 3.0601634313611961e+04 9.8369873418083375e+02 -999 2.81198625e-01 3.371015650e-01 -1.16165986e-01
 54 3 234820 2.5723214229299472e+04 4.1831850009980932e+04 1.2233354266562997e-14 2.0503564015178123e+04 2.6454714667891956e+04 8.8632095660260995e+02 -999 2.81382696e-01 3.328856643e-01 -1.16222064e-01
 55 3 234820 2.3537744973201028e+04 3.9798508173361370e+04 1.1905337410695602e-14 1.8893922971718668e+04 2.3924552573178604e+04 8.0983314380446905e+02 -999 2.81530327e-01 3.289793033e-01 -1.16278201e-01
 56 3 234820 2.1083557415429197e+04 3.7887708380873060e+04 1.1591897690010653e-14 1.7413139143991153e+04 2.1403704798241721e+04 7.2294285302051799e+02 -999 2.81613263e-01 3.252204951e-01 -1.16276885e-01
 57 3 234820 1.8402394559477674e+04 3.5687114582464361e+04 1.1217462702084910e-14 1.5719463576461698e+04 1.8615796090550150e+04 6.5826108532626461e+02 -999 2.81707241e-01 3.204451245e-01 -1.16262303e-01
 58 3 234820 1.6117727810746255e+04 3.3308038078168742e+04 1.0748117025307178e-14 1.3947017419559548e+04 1.6305348864194442e+04 6.1904112883627567e+02 -999 2.81811976e-01 3.145259890e-01 -1.16226939e-01
 59 3 234820 1.4738658625185572e+04 3.1248408940960930e+04 1.0303955809087337e-14 1.2519288588159576e+04 1.5116705983869508e+04 6.0563550978482044e+02 -999 2.81913619e-01 3.084672216e-01 -1.16174645e-01
 60 3 234820 1.3927901239566230e+04 2.9550730131607223e+04 9.9160257037267141e-15 1.1467813371434875e+04 1.4607750265244384e+04 5.9434408425676202e+02 -999 2.82017488e-01 3.026062046e-01 -1.16114983e-01
 61 3 234820 1.2859639760586819e+04 2.7699781509838376e+04 9.5086196605751470e-15 1.0510828331255978e+04 1.3902688869150365e+04 5.9746651603651185e+02 -999 2.82108720e-01 2.954711098e-01 -1.15973740e-01
 62 3 234820 1.2139857168822755e+04 2.5620429071947874e+04 8.9875601577713989e-15 9.7335004696735814e+03 1.3581972105212848e+04 6.3472496399305976e+02 -999 2.82332750e-01 2.858050884e-01 -1.15801306e-01
 63 3 234820 1.2145896809324819e+04 2.3634742965893005e+04 8.5508748108469392e-15 9.4677437471295380e+03 1.3908268012634369e+04 7.3841073423179455e+02 -999 2.82803238e-01 2.739031505e-01 -1.15659889e-01
 64 3 234820 1.2633419872106715e+04 2.2115413561644280e+04 8.1968328680233289e-15 9.6520919307477379e+03 1.4558073576281577e+04 9.5590561803170874e+02 -999 2.83537829e-01 2.616524828e-01 -1.15659365e-01
 65 3 234820 1.3129616412879615e+04 2.0971439089180752e+04 8.0124578571942707e-15 9.9166252317687795e+03 1.5102016908304369e+04 1.2971670544975862e+03 -999 2.84502824e-01 2.492951495e-01 -1.15865981e-01
 66 3 234820 1.2762956935776059e+04 1.9042485672067647e+04 7.6315835272902977e-15 9.0697764943552793e+03 1.4646074368215286e+04 2.7906664220641551e+03 -999 2.86164574e-01 2.301376757e-01 -1.16723143e-01
 67 3 234820 1.2456079575944746e+04 1.8028670963165016e+04 7.3479171951180422e-15 8.5275422841057880e+03 1.3965937804267493e+04 8.1171667144929534e+03 -999 2.88450654e-01 2.034478897e-01 -1.18760579e-01
 68 3 234820 1.1870597360113901e+04 1.7871035176989841e+04 6.9950145234682712e-15 8.6396063892239090e+03 1.2824092855908713e+04 1.6439987486414520e+04 -999 2.89675549e-01 1.764667360e-01 -1.22031649e-01
 69 3 234820 1.1719752229620552e+04 1.8339203599976656e+04 6.3927313438357003e-15 8.7973445029193335e+03 1.2013467097567973e+04 2.9668779922928446e+04 -999 2.88065702e-01 1.566284438e-01 -1.25024552e-01
 70 3 234820 1.1665589234058349e+04 1.8498255576828349e+04 5.9367700882412098e-15 8.6719470991755516e+03 1.1786123146494203e+04 4.8141644120636840e+04 -999 2.86371973e-01 1.504479101e-01 -1.25811688e-01
 71 3 234820 8.9330984094005616e+03 1.4381188952637378e+04 5.3005069804615905e-15 7.3252572109039411e+03 9.1410853308793940e+03 9.9690639464168256e+04 -999 2.79075368e-01 1.335607489e-01 -1.26959080e-01
 72 3 234820 7.6390972478960502e+03 1.6822022679613059e+04 4.8593108830639526e-15 5.9303587074256084e+03 7.6640364574352243e+03 1.1398600597220380e+05 -999 2.68203710e-01 1.186793100e-01 -1.25899377e-01
 73 3 234820 7.2230387795634351e+03 2.5460648250955270e+04 4.4143241061116647e-15 5.1967111690052452e+03 9.1392145210012059e+03 4.3912390283531335e+04 -999 2.63404060e-01 1.131755312e-01 -1.24460208e-01
 74 3 234820 6.9654147529506272e+03 2.3471316441568186e+04 4.2229103421858813e-15 5.0508351854684342e+03 1.1496424266098944e+04 2.0813191356528128e+04 -999 2.62476635e-01 1.119266275e-01 -1.24079025e-01
 75 3 234820 6.8123081732918617e+03 2.2421109807040208e+04 4.1576471814579456e-15 4.9437511841425585e+03 1.3420657594158136e+04 1.3693624552740253e+04 -999 2.61833733e-01 1.109873404e-01 -1.23791047e-01
 76 3 234820 6.0394532135085865e+03 1.6256170421810055e+04 4.1205272684611103e-15 4.4970610895811351e+03 8.5427893184957356e+03 1.0651501260003413e+04 -999 2.58560460e-01 1.062280761e-01 -1.22306337e-01
 77 3 234820 5.4940334604472037e+03 1.2451102379065514e+04 4.0228151288611281e-15 4.3356525230442367e+03 5.8814809702861767e+03 7.6695838091239202e+03 -999 2.57066620e-01 1.019112739e-01 -1.21004549e-01
 78 3 234820 5.2607121883830632e+03 1.0486228256953415e+04 3.9548438875212770e-15 4.3704375968294244e+03 5.1738597064631340e+03 5.3058708659459962e+03 -999 2.57725120e-01 9.812524192e-02 -1.20145219e-01
 79 3 234820 5.2125156155533850e+03 9.5476812274536169e+03 3.8281235695034938e-15 4.3901360975442094e+03 5.0637120814938435e+03 4.1835732334673476e+03 -999 2.59959243e-01 9.578541469e-02 -1.20037519e-01
 80 3 234820 5.1173862193636724e+03 9.0062076838861103e+03 3.7323170396708648e-15 4.3959955803389130e+03 4.9463289649682565e+03 3.8863469198511993e+03 -999 2.62145351e-01 9.437676876e-02 -1.20213551e-01
 81 3 234820 4.7851209683439429e+03 7.3947401183202737e+03 4.6478590955281462e-15 3.7944620443542767e+03 4.6625096259955908e+03 9.1152085799062734e+03 -999 2.89097859e-01 8.654580698e-02 -1.26568894e-01
 82 3 234820 4.8227359256086074e+03 7.7498690205769826e+03 4.8754075020430256e-15 3.6077086162577307e+03 4.7141608564981752e+03 1.6785521200099549e+04 -999 3.23378327e-01 8.109685500e-02 -1.37864117e-01
 83 3 234820 5.2564547525016415e+03 8.2467890393817997e+03 4.8410833115549675e-15 3.4552411836333281e+03 5.5174425088183307e+03 3.0745083343343453e+04 -999 3.57753437e-01 7.695266848e-02 -1.50970266e-01
 84 3 234820 5.4009762375581877e+03 7.3872857403991320e+03 4.5655290198111941e-15 3.2804025782382291e+03 6.5715485528778345e+03 3.8527093568254080e+04 -999 3.82057960e-01 7.437957754e-02 -1.60443204e-01
 85 3 234820 4.4487839216892980e+03 5.9518489688561885e+03 4.2092759546482489e-15 2.8501058337671861e+03 5.2145515758503507e+03 3.8131827452863537e+04 -999 3.96215229e-01 7.285210892e-02 -1.65558469e-01
 86 3 234820 2.9065191463642118e+03 3.4110114149542205e+03 3.4674579796150290e-13 2.0120473184795203e+03 2.8602115393247450e+03 3.3578548263771379e+04 -999 4.37226738e-01 6.942265155e-02 -1.79069726e-01
 87 3 234820 2.4356945052501796e+03 3.0539051745847710e+03 2.7381330812907391e-13 1.4653074600012412e+03 2.3276868806304733e+03 5.8753343687962646e+04 -999 4.80325262e-01 6.635210827e-02 -1.90391236e-01
 88 3 234820 2.3981906943511985e+03 3.2600969439020050e+03 3.9070859498159035e-13 1.2115762765406537e+03 2.2870732732444881e+03 4.3419062260265760e+04 -999 5.26465748e-01 6.398227205e-02 -1.99391311e-01
 89 3 234820 2.4680671016530187e+03 3.2379611582473458e+03 3.2169559197840361e-13 1.0042470044729228e+03 2.4057010291135243e+03 2.0306600074007994e+04 -999 5.60947397e-01 6.300441745e-02 -2.03873694e-01
 90 3 234820 2.4836425280512517e+03 3.1597545109848948e+03 2.5346377305446289e-13 8.8261971457680249e+02 2.4451757329567508e+03 1.1833171016145519e+04 -999 5.82966848e-01 6.273547366e-02 -2.05834699e-01
 91 3 234820 1.7947371761695970e+03 2.1766061411673450e+03 2.1105780318670110e-13 5.7724134119048426e+02 1.7350543792237627e+03 8.2140460035910419e+03 -999 6.46760535e-01 6.357426381e-02 -2.07818108e-01
 92 3 234820 1.5436809834692392e+03 1.6515864827037810e+03 2.1373172130756652e-13 4.0813569381760738e+02 1.4806249039118979e+03 6.4362775946046777e+03 -999 7.14339986e-01 6.529628123e-02 -2.06437288e-01
 93 3 234820 1.5357316777629458e+03 1.4967013209364400e+03 1.1739171202572006e-13 3.3719845396715954e+02 1.4808999406606235e+03 5.7052327017836078e+03 -999 7.74630485e-01 6.737779087e-02 -2.02195816e-01
 94 3 234820 1.4294165262061081e+03 1.4880776287620661e+03 1.4388407125475491e-13 3.0615045918065488e+02 1.3734353141288468e+03 5.1393250068136767e+03 -999 7.96986925e-01 6.807761513e-02 -1.99649189e-01
 95 3 234820 1.3259459229667968e+03 1.7580016010837319e+03 2.1708119327250497e-13 2.8392437899240537e+02 1.2907867163675151e+03 4.8307612119854275e+03 -999 8.16415343e-01 6.847538669e-02 -1.97229899e-01
 96 3 234820 1.0836996791804438e+03 1.5996154695206785e+03 2.9906078781586999e-13 2.6888488874601734e+02 1.0370287965775519e+03 5.7925721613083806e+03 -999 8.46404798e-01 6.754672008e-02 -1.94256265e-01
 97 3 234820 9.6160714534419662e+02 1.4737337165752299e+03 4.4195766089379289e-13 2.6608638771168745e+02 9.0176507023726333e+02 6.4632396558666042e+03 -999 8.70219441e-01 6.646876125e-02 -1.92096194e-01
 98 3 234820 8.8809455067654494e+02 1.3475989881552694e+03 5.3861755728959395e-13 2.6056397194638544e+02 8.1580672784857200e+02 7.7510174863201601e+03 -999 8.91219238e-01 6.531230074e-02 -1.90231042e-01
 99 3 234820 8.6197047826637800e+02 1.1996031988175428e+03 4.1421546562990274e-13 2.4794459154428174e+02 7.7702739497457912e+02 1.0373032140730818e+04 -999 9.10825481e-01 6.409082999e-02 -1.88473187e-01
 100 3 234820 8.5618343941659759e+02 1.1071511478966197e+03 3.5037998082855184e-13 2.4336807210190634e+02 7.6462412735769158e+02 7.9447794917965357e+03 -999 9.21468314e-01 6.333781939e-02 -1.87445367e-01
 101 3 234820 8.2306923529379924e+02 1.1514539929884786e+03 3.6570472508039399e-13 3.2481261862965187e+02 7.2940351240428538e+02 9.5295044002404029e+03 -999 9.34485604e-01 6.258342386e-02 -1.86982163e-01
 102 3 234820 8.1380175339401956e+02 1.1770220567134058e+03 4.2477259866840820e-13 4.5490355302524125e+02 7.1704902010212879e+02 8.9410096094173023e+03 -999 9.49403976e-01 6.171949143e-02 -1.86475756e-01
 103 3 234820 8.2494327718448221e+02 1.1512957641716041e+03 4.9886824241652232e-13 5.5661769037261922e+02 7.2519876145146213e+02 8.9328159329523351e+03 -999 9.66113108e-01 6.075898857e-02 -1.85857099e-01
 104 3 234820 8.5698358692124805e+02 1.1497038157703382e+03 5.3556469134001148e-13 5.9372392643381772e+02 7.5366763183146497e+02 9.5669842414662180e+03 -999 9.78745535e-01 6.000314737e-02 -1.85190900e-01
 105 3 234820 8.8214362261173801e+02 1.1603633706597782e+03 5.3339791943322659e-13 6.0608803026230601e+02 7.7675422491592451e+02 1.0004701057523809e+04 -999 9.87064831e-01 5.945986150e-02 -1.84578852e-01
 106 3 234820 8.6770640987847105e+02 1.1759196379494506e+03 4.9542697171569211e-13 5.7185364463359963e+02 7.6101955729174642e+02 1.0188162456688809e+04 -999 9.90310618e-01 5.919823834e-02 -1.84254286e-01
 107 3 234820 8.6369168839494080e+02 1.1813141820667674e+03 4.4916727084115336e-13 5.3771482395767111e+02 7.5507800920014063e+02 1.0103483978220471e+04 -999 9.94257471e-01 5.890790842e-02 -1.83925103e-01
 108 3 234820 8.7015394070606317e+02 1.1801844114012856e+03 4.0413255452257665e-13 5.0407011724072674e+02 7.6045499636336206e+02 1.1797489701220065e+04 -999 9.98896360e-01 5.859986320e-02 -1.83624534e-01
 109 3 234820 8.8895401136887926e+02 1.1577341494136404e+03 3.6181278913308823e-13 4.6099022860435139e+02 7.7877532933477801e+02 1.2566308558794564e+04 -999 1.00439291e+00 5.825251568e-02 -1.83330448e-01
 110 3 234820 9.1353551905685163e+02 1.1518926976535445e+03 3.4934219802465701e-13 4.3758106202427643e+02 8.0307527482417765e+02 1.2361204165413879e+04 -999 1.00800760e+00 5.800282343e-02 -1.83118101e-01
 111 3 234820 9.2248660248004001e+02 1.1507419801668932e+03 3.2394332612757358e-13 4.2920315564622314e+02 8.1125060452506455e+02 1.1239146945601073e+04 -999 1.01229341e+00 5.786964543e-02 -1.83200238e-01
 112 3 234820 9.3817182436311657e+02 1.1393403724327266e+03 3.1315980089740260e-13 4.1339787442387694e+02 8.2617498984776057e+02 1.1140245248456275e+04 -999 1.01777571e+00 5.776297695e-02 -1.83465563e-01
 113 3 234820 9.5215140762933765e+02 1.1100455684862802e+03 3.2028275276048618e-13 3.9396661521186718e+02 8.3911339704931777e+02 1.0361960230597399e+04 -999 1.02457654e+00 5.760313289e-02 -1.83701761e-01
 114 3 234820 9.6477681346505392e+02 1.0700193308494104e+03 3.4009193291078851e-13 3.7478095747073377e+02 8.5131349463752008e+02 1.1447400704985961e+04 -999 1.03006052e+00 5.733242548e-02 -1.83509419e-01
 115 3 234820 9.6078038211574926e+02 1.0572298188615407e+03 3.3975647227588199e-13 3.7325728104194371e+02 8.4810892856263024e+02 1.2171256114933694e+04 -999 1.03410121e+00 5.713088080e-02 -1.83426830e-01
 116 3 234820 8.8870694533777214e+02 1.0884539768897539e+03 3.0479460772130348e-13 3.7286115325185398e+02 7.7978040937962874e+02 1.0056180435672570e+04 -999 1.03775019e+00 5.698743260e-02 -1.83644781e-01
 117 3 234820 8.2555672873514663e+02 1.1285183821109820e+03 3.2928964690034382e-13 3.9253947107817686e+02 7.2049167398115981e+02 1.0699663107713635e+04 -999 1.04449566e+00 5.694891070e-02 -1.84349886e-01
 118 3 234820 8.0784470673127282e+02 1.1362835919654383e+03 3.3984501359182364e-13 3.9825013776727252e+02 7.0432332073342172e+02 1.1468649718847479e+04 -999 1.04790486e+00 5.687947677e-02 -1.84403497e-01
 119 3 234820 8.0200162117479056e+02 1.1255206643413117e+03 3.6214429958118834e-13 3.9294152714733599e+02 6.9920561655370068e+02 9.9819839731107677e+03 -999 1.05233937e+00 5.692749472e-02 -1.84778949e-01
 120 3 234820 8.0590957056652962e+02 1.1128861316056425e+03 3.8970274666185505e-13 3.9192064595988074e+02 7.0223408247039822e+02 1.0280793278016659e+04 -999 1.05712505e+00 5.696530206e-02 -1.85115509e-01
 121 3 234820 7.7921672842314308e+02 9.9686244505247691e+02 3.1074552945509351e-13 3.2589272431088182e+02 6.7750884129804956e+02 1.1638370858972183e+04 -999 1.05779055e+00 5.651636815e-02 -1.84039442e-01
 122 3 234820 7.7181959565197587e+02 9.1599490877400603e+02 2.5948213779008921e-13 2.7716343753604900e+02 6.6997503835756504e+02 1.2472458861111159e+04 -999 1.05882438e+00 5.616512443e-02 -1.83224130e-01
 123 3 234820 7.6340883664358455e+02 8.5526124584366733e+02 2.2731197168538883e-13 2.4200570990725529e+02 6.6036477524465397e+02 1.2780053821296204e+04 -999 1.06028870e+00 5.591539421e-02 -1.82700597e-01
 124 3 234820 7.6270268075176784e+02 7.9923127983145366e+02 2.0565145127482022e-13 2.1978003956754119e+02 6.5708453187514715e+02 1.3282458840797250e+04 -999 1.06225820e+00 5.565901490e-02 -1.82214105e-01
 125 3 234820 7.6783175164750162e+02 7.8403795908088898e+02 1.9760308110762371e-13 2.1237932161733360e+02 6.6186084169469495e+02 1.2595790843036631e+04 -999 1.06318695e+00 5.550020974e-02 -1.81896337e-01
 126 3 234820 7.6324702743182399e+02 7.5567218237996553e+02 1.5778215212307391e-13 2.0559087196560674e+02 6.5758066854572519e+02 1.3008589169849827e+04 -999 1.06482230e+00 5.525357675e-02 -1.81413115e-01
 127 3 234820 7.6277236687309710e+02 7.2833075602296549e+02 1.5596738569495400e-13 2.0474400094512933e+02 6.5707440279834805e+02 1.2524773706864678e+04 -999 1.06678571e+00 5.498337197e-02 -1.80909722e-01
 128 3 234820 7.6518554696007755e+02 7.0937533426040955e+02 1.7806881112840960e-13 2.0781299057613074e+02 6.6047545195199132e+02 1.2836780144226235e+04 -999 1.06877783e+00 5.470366324e-02 -1.80406776e-01
 129 3 234820 7.8144686949486038e+02 7.0517471233680487e+02 2.0170165957553744e-13 2.1035630083525120e+02 6.7832836005336412e+02 1.2752073517377354e+04 -999 1.07046006e+00 5.443569537e-02 -1.79926794e-01
 130 3 234820 7.9582986536252724e+02 7.0492925193154292e+02 2.1272616507155349e-13 2.1162936922124223e+02 6.9384408602154508e+02 1.2119333864374586e+04 -999 1.07128429e+00 5.428519884e-02 -1.79655798e-01
 131 3 234820 7.8533589652640819e+02 6.9280958467028279e+02 1.7274071163387835e-13 2.1622915951421987e+02 6.8458434521391860e+02 1.1615692744720147e+04 -999 1.07255868e+00 5.409923434e-02 -1.79296654e-01
 132 3 234820 7.9247003440570052e+02 6.8319324081130185e+02 1.6960257328866737e-13 2.1928051991393525e+02 6.9304833602474139e+02 1.1442501607175813e+04 -999 1.07405401e+00 5.392349153e-02 -1.78991595e-01
 133 3 234820 8.0942302748655686e+02 6.7629042854654938e+02 1.8836290686164297e-13 2.2169076737440898e+02 7.1156518913141394e+02 1.1429744878988651e+04 -999 1.07570392e+00 5.377948667e-02 -1.78782850e-01
 134 3 234820 8.2977492723193200e+02 6.8593289812325872e+02 2.0644808038396121e-13 2.2588815565025280e+02 7.3259926864485556e+02 1.1946976341991809e+04 -999 1.07722518e+00 5.365404777e-02 -1.78594641e-01
 135 3 234820 8.5495930058799286e+02 6.8933449485340475e+02 2.1776103598066689e-13 2.2735231109280676e+02 7.5832745888529155e+02 1.0956692030999946e+04 -999 1.07814611e+00 5.353745171e-02 -1.78396217e-01
 136 3 234820 8.4070383969795944e+02 6.8022865604923777e+02 1.8129163497711343e-13 2.2822287659077108e+02 7.4407527009957300e+02 1.1434927386645342e+04 -999 1.07923082e+00 5.346606741e-02 -1.78306488e-01
 137 3 234820 8.3863044582620887e+02 6.7275332621856853e+02 1.6310225877983688e-13 2.2963699736515710e+02 7.4133989463916896e+02 1.1885060285501700e+04 -999 1.08084270e+00 5.341235071e-02 -1.78293946e-01
 138 3 234820 8.5549753742016344e+02 6.6797813343102507e+02 1.6849039594953752e-13 2.3021202231519882e+02 7.5697682258919417e+02 1.1850267212532721e+04 -999 1.08301813e+00 5.337644636e-02 -1.78365133e-01
 139 3 234820 8.6339232361466497e+02 6.6802308964590770e+02 1.7591443138375260e-13 2.2687208481036137e+02 7.6597204337994822e+02 1.2096612561254655e+04 -999 1.08418947e+00 5.333580538e-02 -1.78362649e-01
 140 3 234820 8.7811892169634416e+02 6.8199362035517413e+02 1.8506451014313959e-13 2.2139561728748268e+02 7.8154072583857032e+02 1.1255433264526573e+04 -999 1.08550474e+00 5.328707647e-02 -1.78347000e-01
 141 3 234820 8.5644009578393593e+02 6.7247325954183282e+02 1.6373399020736316e-13 2.2020869442430751e+02 7.5911868750675421e+02 1.0817747626941840e+04 -999 1.08667490e+00 5.331397759e-02 -1.78485146e-01