TITLE = "005.02 ALPHA 3.00 GRIDLEVEL 5"

VARIABLES = "ITERATION"  "GRID_LEVEL"  "GRID_SIZE"  "CONTINUITY"  "MOMENTUMX"  "MOMENTUMY"  "MOMENTUMZ"  "ENERGY"  "TURB1"  "TURB2"  "CL_TOT"  "CD_TOT"  "CM_TOT"

DATASETAUXDATA ParticipantID   = "005"
DATASETAUXDATA SubmissionDate  = "10-31-2024"
DATASETAUXDATA Name            = "Jeffrey A. Housman"
DATASETAUXDATA Email           = "jeffrey.a.housman@nasa.gov"
DATASETAUXDATA Institution     = "NASA Ames Research Center"
DATASETAUXDATA SolverName      = "LAVA Curvilinear"
DATASETAUXDATA BasicAlgorithm  = "RANS"
DATASETAUXDATA TurbulenceModel = "SA-RC-comp-neg"
DATASETAUXDATA GridId          = "Multiblock"
DATASETAUXDATA Discretization  = "Finite difference"
DATASETAUXDATA Order           = "2"
DATASETAUXDATA DistanceCalc    = "Exact"
DATASETAUXDATA Notes           = " "

ZONE T = "005.02 - Alpha 3.00 - Grid Level 5"
AUXDATA Tstatic         = "271.0"
AUXDATA Deltat          = "-999"
AUXDATA GridFileName    = "ONERA-OAT15A_230mmChord_780mmSpan_upZ_2024_06_25-Structured_23mm_Level-5.x"
AUXDATA Misc            = " "
 0 5 752103 4.9156575580123509e+05 1.5857604933979062e+06 7.6804753520988311e-14 4.8053442660491727e+05 5.2084249904870574e+05 2.8710972530872785e+06 -999 1.52686734e-02 9.097299816e-01 -9.01755064e-03
 1 5 752103 7.3230198103298084e+05 1.1830633665094159e+06 6.5420062710635529e-14 3.6568967906092765e+05 7.1328021971936733e+05 1.8603848129370913e+06 -999 4.76952235e-02 8.314317408e-01 -2.27774868e-02
 2 5 752103 8.9837109983533318e+05 1.0079481758231608e+06 5.7051734540957703e-14 4.0182298721719836e+05 8.6258044683325244e+05 1.2102875895761731e+06 -999 8.66325958e-02 7.855454858e-01 -3.92834747e-02
 3 5 752103 1.0461513555599706e+06 8.9866588662262110e+05 5.0682575071817242e-14 4.7855128328665398e+05 1.0032512752892307e+06 7.9155867373701825e+05 -999 1.22327766e-01 7.556384892e-01 -5.45215304e-02
 4 5 752103 1.1738627371961575e+06 8.2250378847671614e+05 4.5729157160290697e-14 5.7187163460548187e+05 1.1372751555902252e+06 5.1030849480626971e+05 -999 1.54091399e-01 7.353287738e-01 -6.66777060e-02
 5 5 752103 1.3063496506114672e+06 8.2397115895706182e+05 4.1846535949994257e-14 6.6952192716129683e+05 1.2959184220650985e+06 3.2822582262853964e+05 -999 1.77884223e-01 7.194017244e-01 -7.57111663e-02
 6 5 752103 1.1931523599355323e+06 8.5104135502477631e+05 3.8919571514863116e-14 7.0372968906318292e+05 1.1854340785417131e+06 1.7428069577498100e+05 -999 1.94228580e-01 6.983680606e-01 -8.26407423e-02
 7 5 752103 1.2247684887874119e+06 8.5855021774059406e+05 3.6309633632777027e-14 7.3458980973582482e+05 1.2139171327059323e+06 1.2209487513071559e+05 -999 2.07814404e-01 6.754334141e-01 -8.88517205e-02
 8 5 752103 1.2878823705406594e+06 8.3991345888348378e+05 3.4387392098353595e-14 7.5487128492297465e+05 1.2969212633499464e+06 1.0044756388034948e+05 -999 2.18533228e-01 6.528117217e-01 -9.34983589e-02
 9 5 752103 1.5587896153871163e+06 9.1621087287680432e+05 3.2778431875422996e-14 8.3301522114525712e+05 1.6295861126172533e+06 8.8633341204175667e+04 -999 2.28872641e-01 6.276159731e-01 -9.76032875e-02
 10 5 752103 1.4564456012596856e+06 7.6392514010312501e+05 3.1860702000625777e-14 8.0184251413134881e+05 1.5012545875940854e+06 7.9531873271800083e+04 -999 2.34435821e-01 6.126355674e-01 -9.97501292e-02
 11 5 752103 1.3797176276747640e+06 7.8690452172499988e+05 3.0805097784644389e-14 7.9370440656453464e+05 1.4117743407957007e+06 7.1749232397416694e+04 -999 2.40164258e-01 5.959773491e-01 -1.02020867e-01
 12 5 752103 1.2802455771755427e+06 7.6697217224654718e+05 2.9785251805537508e-14 7.6540821995630953e+05 1.2967226159674826e+06 6.5978489221422322e+04 -999 2.45032913e-01 5.803706558e-01 -1.03882909e-01
 13 5 752103 1.4307705415532952e+06 8.1433232491992740e+05 2.8827378479037148e-14 8.0270485765263170e+05 1.4797142880037411e+06 6.1579493947081079e+04 -999 2.49662127e-01 5.639403177e-01 -1.05670395e-01
 14 5 752103 1.3461521094153866e+06 6.9801979144441197e+05 2.8259389751166181e-14 7.6626003031160682e+05 1.3745365325302323e+06 5.7636648491276115e+04 -999 2.52257262e-01 5.537497373e-01 -1.06739307e-01
 15 5 752103 1.5481336596323294e+06 8.4029296608621744e+05 2.7822261150681077e-14 8.0333882369950414e+05 1.6434787562359737e+06 5.4342375678380406e+04 -999 2.54777260e-01 5.433779488e-01 -1.07863177e-01
 16 5 752103 1.3000007989833215e+06 7.3276835718791001e+05 2.7278781039693493e-14 7.3386099454772193e+05 1.3649778054906458e+06 4.9921598077626630e+04 -999 2.56689021e-01 5.344468209e-01 -1.08739754e-01
 17 5 752103 1.2013451770577675e+06 6.8336016922516527e+05 2.6710079000463445e-14 7.0879940764436615e+05 1.2208273170893134e+06 4.6444813470413988e+04 -999 2.58634862e-01 5.243895938e-01 -1.09592390e-01
 18 5 752103 1.1758129983774426e+06 6.4339243180927425e+05 2.6309184077110654e-14 6.9064395462016412e+05 1.1870182243039776e+06 4.3680218310812052e+04 -999 2.60127844e-01 5.156638168e-01 -1.10175638e-01
 19 5 752103 1.3096889978261590e+06 6.8828157322875177e+05 2.5997212080222020e-14 6.9641494098175515e+05 1.3722002711659190e+06 4.1327356122286561e+04 -999 2.61358051e-01 5.077325274e-01 -1.10588650e-01
 20 5 752103 1.2931178824092264e+06 6.2889233692430391e+05 2.5779299730437054e-14 6.9863705431054893e+05 1.3404813440058189e+06 3.9211014500276775e+04 -999 2.62241742e-01 5.014527920e-01 -1.10854217e-01
 21 5 752103 1.1771184570172054e+06 6.5249762676591438e+05 2.5407694768807387e-14 6.5985414530406985e+05 1.2268082041701274e+06 3.6277598685971236e+04 -999 2.62953890e-01 4.953335640e-01 -1.11055948e-01
 22 5 752103 1.0477958913319526e+06 5.8011310043980589e+05 2.4973731030671048e-14 6.1513039702376723e+05 1.0711315816108340e+06 3.3981439242163717e+04 -999 2.63733925e-01 4.880356109e-01 -1.11272759e-01
 23 5 752103 1.0539311354741298e+06 5.9679925557118247e+05 2.4582573987033798e-14 6.0331737984214490e+05 1.0778058848663685e+06 3.2093806096740984e+04 -999 2.64421335e-01 4.810189069e-01 -1.11466493e-01
 24 5 752103 1.1917625738838604e+06 6.2739304787262506e+05 2.4302763491267422e-14 6.2131863561981544e+05 1.2497898082419145e+06 3.0554122363253766e+04 -999 2.65038244e-01 4.742783631e-01 -1.11649090e-01
 25 5 752103 1.1351219999910677e+06 5.4239049692678056e+05 2.4077151512338357e-14 5.9702353835981013e+05 1.1876805795893436e+06 2.9031397320237516e+04 -999 2.65409133e-01 4.699156401e-01 -1.11765471e-01
 26 5 752103 1.0165786245838763e+06 5.3295926184461534e+05 2.3683938608360342e-14 5.6542889751134219e+05 1.0606726236285819e+06 2.6990607228982444e+04 -999 2.65762276e-01 4.649846603e-01 -1.11875881e-01
 27 5 752103 9.0722115752873453e+05 5.1195395166968333e+05 2.3243588383167212e-14 5.2872439179076627e+05 9.3033488197854161e+05 2.5399989931602511e+04 -999 2.66152476e-01 4.593725684e-01 -1.12000855e-01
 28 5 752103 9.1394562579691980e+05 5.1082013600932254e+05 2.2869557773226909e-14 5.1517914746426867e+05 9.3477517703708296e+05 2.4092557898961852e+04 -999 2.66533953e-01 4.537945365e-01 -1.12124184e-01
 29 5 752103 1.0347045848249752e+06 5.4330381330123090e+05 2.2622386576574963e-14 5.2698117941511224e+05 1.0853483121711044e+06 2.2982086068819510e+04 -999 2.66888676e-01 4.485169936e-01 -1.12236723e-01
 30 5 752103 1.0011010259856607e+06 4.7453051692246547e+05 2.2509302298490669e-14 5.1301921196078148e+05 1.0480366257187026e+06 2.1890658525455259e+04 -999 2.67118896e-01 4.450057253e-01 -1.12307970e-01
 31 5 752103 8.8759094484143553e+05 4.7258344377716741e+05 2.2273513150191904e-14 4.8094377859620244e+05 9.3200049481846625e+05 2.0393256769980821e+04 -999 2.67343534e-01 4.410298960e-01 -1.12373049e-01
 32 5 752103 7.7483093098977068e+05 4.3713785421424458e+05 2.2031196466326120e-14 4.4482629829910025e+05 7.9775244640621322e+05 1.9234568911929484e+04 -999 2.67602543e-01 4.364484910e-01 -1.12448373e-01
 33 5 752103 7.6871314523142064e+05 4.2869198008543247e+05 2.1869614163718081e-14 4.2874221458709770e+05 7.8230280092083663e+05 1.8291527293321746e+04 -999 2.67864009e-01 4.318118351e-01 -1.12524795e-01
 34 5 752103 8.4545688772130397e+05 4.4964060468283121e+05 2.1835494899810823e-14 4.2864517415203358e+05 8.8590228778906330e+05 1.7455396026709135e+04 -999 2.68080583e-01 4.279522769e-01 -1.12588593e-01
 35 5 752103 9.6179763327646581e+05 5.4196060956612392e+05 2.1858726106343041e-14 4.4720614635926497e+05 1.0334521619296605e+06 1.6709961593794298e+04 -999 2.68282311e-01 4.243420227e-01 -1.12648581e-01
 36 5 752103 8.0040562835924746e+05 4.6644162351344089e+05 2.1674434608330340e-14 4.0572722767772822e+05 8.6363392330846714e+05 1.5576284045571123e+04 -999 2.68434776e-01 4.212243048e-01 -1.12691479e-01
 37 5 752103 6.6191777623497904e+05 3.8525795150017261e+05 2.1453354846081794e-14 3.6928390595599689e+05 6.9150763935197494e+05 1.4701670333259008e+04 -999 2.68620586e-01 4.174832259e-01 -1.12744496e-01
 38 5 752103 6.3281521680941503e+05 3.6343475369633839e+05 2.1252633716718692e-14 3.4969460601614427e+05 6.4266255189243017e+05 1.3978717880777620e+04 -999 2.68813774e-01 4.136581013e-01 -1.12800492e-01
 39 5 752103 7.0004981546609337e+05 3.7660111402054084e+05 2.1138451268278666e-14 3.4804634744602448e+05 7.2818319363661786e+05 1.3355237981250570e+04 -999 2.68988560e-01 4.102457218e-01 -1.12851856e-01
 40 5 752103 7.6266945417487586e+05 3.9283819220830948e+05 2.1089749211898240e-14 3.5414759387820010e+05 8.0558123662398686e+05 1.2784704956067544e+04 -999 2.69138979e-01 4.073388482e-01 -1.12896553e-01
 41 5 752103 6.4857923911488266e+05 3.6211746897674946e+05 2.0858471572936280e-14 3.2462071026141988e+05 6.9459834961305361e+05 1.1891090293769827e+04 -999 2.69266245e-01 4.045945090e-01 -1.12932459e-01
 42 5 752103 5.3442980838251614e+05 3.1512230650471576e+05 2.0567320280112861e-14 2.9422422597122227e+05 5.6068349153278244e+05 1.1176467378755058e+04 -999 2.69418796e-01 4.013781686e-01 -1.12976156e-01
 43 5 752103 4.9951230183142505e+05 2.8797848130590410e+05 2.0273568192033114e-14 2.7381902225433150e+05 5.0535641408982343e+05 1.0570617423195185e+04 -999 2.69590651e-01 3.978394627e-01 -1.13026055e-01
 44 5 752103 5.4340549454406241e+05 2.9423624914868461e+05 2.0077185744601833e-14 2.6898714653875650e+05 5.6093548532079183e+05 1.0049595430946549e+04 -999 2.69742952e-01 3.947743833e-01 -1.13070790e-01
 45 5 752103 5.9929506964326103e+05 3.3120846822995244e+05 1.9955249261659398e-14 2.7088024720408767e+05 6.3865530580454064e+05 9.5807613314569699e+03 -999 2.69870708e-01 3.922461331e-01 -1.13108654e-01
 46 5 752103 5.0673673570905719e+05 2.8047429144687636e+05 1.9713063231889029e-14 2.4800953270315885e+05 5.4482847457871237e+05 8.9053997562569784e+03 -999 2.69986188e-01 3.897404032e-01 -1.13141036e-01
 47 5 752103 4.1560973554800503e+05 2.4646134352829593e+05 1.9428694643157912e-14 2.2496637003890227e+05 4.3907528790953325e+05 8.3372737779640374e+03 -999 2.70121868e-01 3.868677250e-01 -1.13179575e-01
 48 5 752103 3.7862305332047254e+05 2.2502704911882264e+05 1.9148150627985965e-14 2.0745334512533338e+05 3.8463280503451324e+05 7.8465957447487453e+03 -999 2.70274054e-01 3.837264056e-01 -1.13223322e-01
 49 5 752103 4.0346830306622037e+05 2.2473900248128336e+05 1.8974613857816978e-14 2.0084523597413849e+05 4.1307437827148958e+05 7.4245764446804978e+03 -999 2.70416892e-01 3.808494646e-01 -1.13264858e-01
 50 5 752103 4.4052005032293237e+05 2.3896868504897086e+05 1.8900622433979188e-14 2.0016289720923360e+05 4.6244035567749036e+05 7.0479142680143323e+03 -999 2.70542694e-01 3.783632834e-01 -1.13301884e-01
 51 5 752103 3.7782518511528143e+05 2.1167139745147614e+05 1.8691204932398910e-14 1.8346174142101250e+05 4.0350101935256150e+05 6.5217504375204389e+03 -999 2.70649651e-01 3.760962746e-01 -1.13331880e-01
 52 5 752103 3.0839526384567400e+05 1.8665263048241200e+05 1.8427609582104237e-14 1.6506124254136343e+05 3.2780631823624606e+05 6.0745519451274595e+03 -999 2.70779695e-01 3.733949455e-01 -1.13368951e-01
 53 5 752103 2.7237460998922004e+05 1.6833151113401045e+05 1.8144766114876007e-14 1.4935069321731754e+05 2.7941904129931703e+05 5.6605701761883756e+03 -999 2.70929494e-01 3.703518513e-01 -1.13412407e-01
 54 5 752103 2.8057934042723686e+05 1.6445245402877446e+05 1.7949113767789263e-14 1.4128106032315758e+05 2.8693422515895194e+05 5.3073808305237326e+03 -999 2.71071891e-01 3.675227865e-01 -1.13454577e-01
 55 5 752103 2.9908959546419233e+05 1.7130808857972804e+05 1.7845507516903512e-14 1.3769731696388961e+05 3.1256271625404910e+05 4.9929710122682773e+03 -999 2.71199341e-01 3.650328267e-01 -1.13493278e-01
 56 5 752103 2.5733683460393836e+05 1.5308801371986777e+05 1.7654580216682201e-14 1.2649831897139885e+05 2.7383490352851461e+05 4.5783777804923457e+03 -999 2.71306292e-01 3.627896188e-01 -1.13525278e-01
 57 5 752103 2.1051790260492900e+05 1.3620619138949152e+05 1.7422868919514577e-14 1.1389112321223001e+05 2.2464894418032147e+05 4.2157583024066626e+03 -999 2.71435063e-01 3.601374101e-01 -1.13564534e-01
 58 5 752103 1.8183997258793021e+05 1.2284007290594922e+05 1.7166463621360243e-14 1.0214259227975433e+05 1.8908644555209370e+05 3.8894764630240620e+03 -999 2.71585838e-01 3.570952839e-01 -1.13611512e-01
 59 5 752103 1.7981683542357723e+05 1.1761568507515950e+05 1.6985791759376218e-14 9.4744110397696786e+04 1.8500208781815233e+05 3.6107195063888275e+03 -999 2.71733977e-01 3.541687796e-01 -1.13659075e-01
 60 5 752103 1.8422795186887108e+05 1.1681625280095208e+05 1.6894751209646750e-14 9.0193332096045095e+04 1.9160989708921005e+05 3.3731605032408738e+03 -999 2.71868836e-01 3.515464406e-01 -1.13704160e-01
 61 5 752103 1.5974388585034240e+05 1.0742507407275469e+05 1.6713363660834942e-14 8.3455388339287922e+04 1.6897161118826407e+05 3.0574422854198510e+03 -999 2.71976243e-01 3.493084661e-01 -1.13739983e-01
 62 5 752103 1.3102631195887145e+05 9.7992710963878504e+04 1.6475766602027595e-14 7.5580643126932104e+04 1.3958014262947274e+05 2.7845472577278883e+03 -999 2.72108072e-01 3.466047969e-01 -1.13784616e-01
 63 5 752103 1.1026439324111943e+05 8.9591287416497682e+04 1.6206874982433884e-14 6.7666322063650514e+04 1.1552664431576862e+05 2.5442475237590711e+03 -999 2.72265638e-01 3.434325046e-01 -1.13839044e-01
 64 5 752103 1.0371773116853330e+05 8.4474746627358123e+04 1.5988243718619355e-14 6.1916467557437340e+04 1.0733178353200428e+05 2.3426127292952224e+03 -999 2.72422617e-01 3.403295550e-01 -1.13895128e-01
 65 5 752103 1.0088648578087981e+05 8.1177291274459043e+04 1.5841100669348440e-14 5.7799424460524002e+04 1.0448832039959279e+05 2.1718514312586553e+03 -999 2.72566121e-01 3.375257844e-01 -1.13949098e-01
 66 5 752103 8.8134280826226983e+04 7.6382821451914977e+04 1.5649117355496374e-14 5.3379502121529236e+04 9.2437038115742427e+04 1.9486446088751650e+03 -999 2.72676067e-01 3.351530129e-01 -1.13988623e-01
 67 5 752103 7.2900263047170578e+04 7.1210758607319076e+04 1.5414746038684784e-14 4.8154785263655009e+04 7.6818565171891067e+04 1.7615736209901420e+03 -999 2.72810825e-01 3.322598341e-01 -1.14037337e-01
 68 5 752103 6.0321385469228386e+04 6.6024072198909271e+04 1.5117402895300421e-14 4.2518735098189878e+04 6.2719136429474245e+04 1.6042962872102419e+03 -999 2.72973356e-01 3.287874694e-01 -1.14096788e-01
 69 5 752103 5.3945636074701368e+04 6.1988524011911330e+04 1.4858471672656746e-14 3.7901420949487918e+04 5.5382509707335841e+04 1.4764004929552241e+03 -999 2.73134514e-01 3.253441978e-01 -1.14157681e-01
 70 5 752103 4.9723647482349028e+04 5.8812243654450562e+04 1.4659514320637393e-14 3.4319937251201562e+04 5.0754181218180296e+04 1.3723830326373511e+03 -999 2.73280569e-01 3.221895020e-01 -1.14216347e-01
 71 5 752103 4.3604873464184238e+04 5.5740198056166846e+04 1.4441123120282856e-14 3.1297218453700865e+04 4.4755722810219384e+04 1.2362326682603050e+03 -999 2.73380050e-01 3.193706902e-01 -1.14247836e-01
 72 5 752103 3.6427579188129275e+04 5.2259415023442511e+04 1.4178022710488954e-14 2.7806236273250957e+04 3.7339974008429541e+04 1.1379988655139878e+03 -999 2.73498111e-01 3.158544208e-01 -1.14282810e-01
 73 5 752103 3.0113749751167190e+04 4.8553136179777895e+04 1.3852385535702998e-14 2.4099910153666075e+04 3.0525440947553256e+04 1.1010435210335388e+03 -999 2.73633363e-01 3.115421753e-01 -1.14319349e-01
 74 5 752103 2.6211396556526845e+04 4.5431746125702935e+04 1.3529256715719478e-14 2.1115131184029968e+04 2.6411622960609744e+04 1.0946821653954598e+03 -999 2.73756450e-01 3.072070340e-01 -1.14349416e-01
 75 5 752103 2.3595323900821812e+04 4.2917988331143220e+04 1.3272173307467898e-14 1.8906354335047701e+04 2.3803858510673628e+04 1.1233573978147729e+03 -999 2.73858785e-01 3.031205127e-01 -1.14373013e-01
 76 5 752103 2.0790798215191284e+04 4.0502370638534863e+04 1.3003202225843695e-14 1.7099557382017541e+04 2.1252372555484806e+04 1.2017014409935573e+03 -999 2.73894295e-01 2.987890342e-01 -1.14325825e-01
 77 5 752103 1.7973045822404805e+04 3.7784009799039268e+04 1.2684716401027800e-14 1.5317993857567762e+04 1.8739259250413281e+04 1.4495908313757116e+03 -999 2.73944349e-01 2.930992583e-01 -1.14251858e-01
 78 5 752103 1.6167234711787594e+04 3.5051290028852287e+04 1.2309130832643224e-14 1.3985754041921307e+04 1.7333218543751729e+04 2.0614712112110019e+03 -999 2.74031165e-01 2.859228790e-01 -1.14152237e-01
 79 5 752103 1.5719247085479914e+04 3.2940187656481838e+04 1.1986242473424894e-14 1.3427325006656058e+04 1.7296406382920697e+04 3.1809267418888085e+03 -999 2.74172568e-01 2.785527474e-01 -1.14062833e-01
 80 5 752103 1.5863182207442933e+04 3.1372240747942909e+04 1.1725812323872749e-14 1.3265321867978579e+04 1.7793141830040990e+04 5.0677061244668985e+03 -999 2.74384033e-01 2.712405221e-01 -1.14010121e-01
 81 5 752103 1.5210801348424931e+04 2.8967533718483122e+04 1.1356436291335729e-14 1.2218207072885987e+04 1.7448755938245118e+04 1.0708349087026651e+04 -999 2.74896862e-01 2.610609595e-01 -1.14025565e-01
 82 5 752103 1.5229056722206102e+04 2.6775177826608462e+04 1.1116679620820337e-14 1.1559420556012705e+04 1.7666567682451663e+04 3.2306133875731623e+04 -999 2.75862171e-01 2.464945288e-01 -1.14261109e-01
 83 5 752103 1.5883791154610204e+04 2.6451814736178512e+04 1.1034241797031877e-14 1.1501419078697103e+04 1.8303985917190494e+04 6.5149396093262578e+04 -999 2.77211992e-01 2.292328181e-01 -1.14968820e-01
 84 5 752103 1.6566006620907458e+04 2.7475638866188787e+04 1.0980619653132434e-14 1.1691848036187661e+04 1.8945761891466187e+04 1.2326718609955485e+05 -999 2.78486149e-01 2.118280060e-01 -1.16238993e-01
 85 5 752103 1.7579632641976972e+04 3.4622501071457671e+04 1.0901212748300730e-14 1.2247581721695351e+04 2.3936754073844488e+04 1.8700089383765846e+05 -999 2.79310022e-01 1.936359811e-01 -1.18116267e-01
 86 5 752103 1.5247004062979160e+04 2.2025625160041869e+04 1.6501856001739532e-13 1.0766869434623224e+04 1.6571433968816538e+04 3.3726721505777014e+05 -999 2.79434044e-01 1.641916662e-01 -1.22125720e-01
 87 5 752103 1.3641526997670684e+04 2.3457379419097950e+04 1.3833047116282662e-13 9.8104332453863644e+03 1.5003465603864637e+04 3.9924689200962003e+05 -999 2.77009337e-01 1.404424122e-01 -1.25637188e-01
 88 5 752103 1.3202277896043011e+04 3.6728308280350320e+04 1.1471122120025402e-13 9.2620994628757053e+03 1.5463725401800217e+04 5.0950155538870126e+05 -999 2.76161143e-01 1.366600347e-01 -1.26018435e-01
 89 5 752103 1.3022335597422687e+04 3.8560048978140563e+04 1.0569690845337431e-13 9.0419387759312849e+03 1.4378106936745462e+04 2.3556619330123955e+05 -999 2.75811071e-01 1.352536037e-01 -1.26133515e-01
 90 5 752103 1.2882113720418214e+04 3.9934826766929291e+04 9.8386347828405372e-14 8.8805578863685751e+03 1.4048008464705414e+04 9.5907425734503093e+04 -999 2.75526463e-01 1.341138066e-01 -1.26220657e-01
 91 5 752103 1.1158530949061600e+04 2.1934231144077181e+04 1.5246497621490992e-13 7.1390013120470694e+03 1.1532138739758249e+04 2.5705656447674547e+05 -999 2.72536058e-01 1.227960319e-01 -1.26673861e-01
 92 5 752103 1.0001954736217231e+04 1.7469159668765791e+04 1.5271288117302536e-13 6.0796142790961694e+03 1.0201290890100447e+04 1.5040255397215125e+05 -999 2.71393046e-01 1.146517950e-01 -1.26929757e-01
 93 5 752103 9.4575732233705185e+03 1.5676197258697646e+04 1.6528072894055290e-13 5.4223627903686720e+03 9.5641834841734417e+03 4.5992271338001410e+04 -999 2.71894622e-01 1.100744134e-01 -1.27222984e-01
 94 5 752103 9.0626527427626042e+03 1.4658148296580663e+04 1.8547396759977250e-13 5.1191884450598254e+03 9.1861437432701950e+03 2.1547703627813706e+04 -999 2.72806223e-01 1.075592951e-01 -1.27525791e-01
 95 5 752103 9.4663264800074685e+03 1.3714781534959367e+04 2.2869903107693843e-13 4.8658091357183539e+03 1.0007696265893424e+04 2.4313081689208637e+04 -999 2.74319372e-01 1.046808413e-01 -1.27983786e-01
 96 5 752103 6.7503612475401123e+03 1.0464890996350987e+04 1.5608111909879281e-13 3.9298890060680151e+03 6.8404035723846064e+03 8.4888760059491440e+04 -999 2.90243811e-01 9.564191641e-02 -1.33275140e-01
 97 5 752103 6.1326247318515607e+03 9.9493257036452160e+03 1.6381162573493239e-13 3.8546789767387222e+03 6.2678817676204626e+03 9.1088306906689555e+04 -999 3.22170157e-01 8.456771964e-02 -1.43550600e-01
 98 5 752103 6.6048572530315432e+03 9.5853556033747136e+03 2.1457589353476361e-13 3.6875338890488806e+03 7.1277904251538048e+03 1.3848642255634812e+05 -999 3.61740621e-01 7.746823377e-02 -1.55987945e-01
 99 5 752103 5.8213364323181431e+03 7.5778036158099740e+03 2.9100416922779894e-13 2.9410568964715526e+03 6.6983555748818653e+03 7.2155308110897240e+04 -999 3.89435033e-01 7.453981691e-02 -1.64257352e-01
 100 5 752103 4.9946600715949262e+03 6.6011917115107244e+03 3.1894942599176794e-13 2.5023241706981526e+03 6.0609357289592144e+03 4.6936989709476467e+04 -999 4.14394308e-01 7.231827022e-02 -1.71108652e-01
 101 5 752103 3.4200892919359953e+03 5.1188700862737269e+03 7.2953400173120643e-13 2.4452339865633007e+03 3.7836730848894476e+03 7.7167746722306401e+04 -999 4.60930012e-01 6.845539018e-02 -1.82332856e-01
 102 5 752103 3.0577641211793252e+03 4.8930602117563922e+03 9.7435087820199887e-13 2.9490771333284470e+03 3.0719479025993442e+03 7.4306043633682086e+04 -999 5.08933186e-01 6.534591176e-02 -1.91707238e-01
 103 5 752103 2.9883551724468343e+03 4.2546296218361094e+03 9.6708319145183112e-13 2.6720093250933469e+03 2.8844288446788992e+03 1.0397813054508099e+05 -999 5.62263976e-01 6.275321531e-02 -1.99363406e-01
 104 5 752103 2.9769725712157006e+03 4.1931404199912886e+03 8.0298124502121301e-13 2.5313758973163990e+03 2.8972242383885277e+03 4.6824883008167562e+04 -999 5.98542350e-01 6.166784180e-02 -2.02890462e-01
 105 5 752103 2.9357676371509651e+03 4.2611463802519020e+03 6.8759889458998968e-13 2.3672294717290179e+03 2.8889055711068168e+03 1.7927950381284718e+04 -999 6.18567614e-01 6.134139047e-02 -2.04027612e-01
 106 5 752103 2.9111860690494691e+03 3.1125632788192215e+03 8.3595219161732748e-13 1.1972867713835155e+03 2.8502169196276664e+03 2.1778058639200561e+04 -999 6.40539773e-01 6.102443729e-02 -2.05389925e-01
 107 5 752103 3.0833041888639964e+03 2.8127248120717541e+03 1.1092273041203999e-12 1.0702728039857025e+03 3.0104485373637372e+03 2.5163951985496587e+04 -999 6.68853709e-01 6.114168426e-02 -2.06653866e-01
 108 5 752103 3.0836580389433425e+03 2.6791511033230104e+03 1.0331310200813985e-12 9.1598970709954904e+02 3.0041945368302572e+03 1.5717982859642720e+04 -999 6.89614553e-01 6.152969698e-02 -2.07209477e-01
 109 5 752103 3.0507690022322658e+03 2.5784686894292627e+03 1.0038670249702477e-12 8.3508041089788821e+02 2.9693663987050777e+03 1.2768352311427259e+04 -999 7.03762308e-01 6.186312384e-02 -2.07274274e-01
 110 5 752103 3.0101923767219764e+03 2.5074888654583788e+03 1.0038851668237239e-12 7.8395329144008349e+02 2.9308184732096674e+03 1.1728088806318467e+04 -999 7.14216881e-01 6.212876971e-02 -2.07079677e-01
 111 5 752103 2.8869097539546237e+03 2.3807441995317349e+03 1.1597354560165984e-12 7.0578268445276888e+02 2.8097675063003130e+03 1.3555997992837334e+04 -999 7.35693041e-01 6.275095058e-02 -2.06246184e-01
 112 5 752103 2.7902476670325254e+03 2.2722623956685184e+03 1.4732187565442450e-12 6.3533342541411139e+02 2.7131985120104464e+03 1.2249110888532485e+04 -999 7.54407248e-01 6.338195214e-02 -2.04917216e-01
 113 5 752103 2.7089909973392637e+03 2.1902208473105838e+03 1.6191820410750798e-12 5.8276209389357416e+02 2.6308338074152393e+03 1.1270726795877114e+04 -999 7.71792229e-01 6.406213900e-02 -2.03243519e-01
 114 5 752103 2.6646440634036890e+03 2.1305408936002395e+03 1.6739969570926894e-12 5.4767430691968036e+02 2.5825440033047475e+03 1.0611341815196603e+04 -999 7.87667239e-01 6.476049566e-02 -2.01368984e-01
 115 5 752103 2.5965988158288019e+03 2.0726243635356186e+03 1.6706141778628306e-12 5.2336274663035351e+02 2.5106868671152488e+03 9.5844372967025029e+03 -999 7.96686878e-01 6.518191283e-02 -2.00118821e-01
 116 5 752103 2.4931530818202737e+03 2.0039426003739220e+03 1.4507743118083419e-12 4.9466905022059649e+02 2.4003276093360155e+03 9.4640138066374675e+03 -999 8.07297742e-01 6.567841962e-02 -1.98485630e-01
 117 5 752103 2.3774972757076853e+03 1.9222042511168133e+03 1.6116857855379885e-12 4.7600004723679064e+02 2.2809815563692100e+03 9.5700457648340089e+03 -999 8.23058240e-01 6.642788129e-02 -1.95935444e-01
 118 5 752103 2.2689809629452097e+03 1.8542856661816670e+03 1.6305824029125343e-12 4.5611027384062578e+02 2.1666489504862257e+03 9.5547897476228154e+03 -999 8.37171791e-01 6.706207045e-02 -1.93614611e-01
 119 5 752103 2.1934069523944390e+03 1.8079281294809496e+03 2.0710426514053588e-12 4.3690233547040361e+02 2.0886592855581389e+03 9.3236438748543533e+03 -999 8.46014547e-01 6.738105186e-02 -1.92182965e-01
 120 5 752103 2.1037686284603255e+03 1.7617675378264398e+03 2.9629086672202524e-12 4.2466894796397099e+02 1.9973339819002285e+03 9.3216410128816788e+03 -999 8.54878372e-01 6.761015240e-02 -1.90780168e-01
 121 5 752103 2.0184162326323890e+03 1.7032125630266530e+03 2.1769604263156945e-12 4.1846595427339918e+02 1.9051907101862082e+03 9.2420691096392857e+03 -999 8.63602986e-01 6.769714286e-02 -1.89454781e-01
 122 5 752103 1.9383071726867329e+03 1.6355979515166534e+03 1.8710242211616189e-12 4.1239676987283832e+02 1.8173406705454693e+03 9.2997733505308970e+03 -999 8.73883562e-01 6.760761786e-02 -1.87929315e-01
 123 5 752103 1.8453845585890556e+03 1.5787066082346728e+03 1.7866221819393011e-12 4.0732638169285218e+02 1.7198595839674724e+03 9.1429215152059714e+03 -999 8.83786798e-01 6.727827627e-02 -1.86698331e-01
 124 5 752103 1.7877880454945255e+03 1.5380030982182923e+03 1.9931282575766640e-12 4.0584567955874149e+02 1.6521334655793569e+03 8.7420926806093394e+03 -999 8.92114723e-01 6.674566976e-02 -1.85784624e-01
 125 5 752103 1.7531758221634873e+03 1.5015452925386710e+03 2.0631524521287044e-12 4.0200552564796334e+02 1.6126334015127418e+03 8.2200566774025519e+03 -999 8.97535919e-01 6.626511385e-02 -1.85318029e-01
 126 5 752103 1.6867191166917817e+03 1.4484917982689160e+03 1.6147035386497697e-12 4.0068725966376189e+02 1.5470468463984412e+03 8.0941054105276980e+03 -999 9.02668384e-01 6.572501930e-02 -1.84988610e-01
 127 5 752103 1.6321376890509698e+03 1.3997175911745146e+03 1.5379714091278657e-12 3.9857016973812875e+02 1.4895089314006341e+03 8.4430616604729512e+03 -999 9.09514309e-01 6.490691492e-02 -1.84628028e-01
 128 5 752103 1.6071699735522980e+03 1.3670241342270451e+03 1.6466352175889834e-12 3.9731407653713563e+02 1.4576636998322556e+03 8.6029413514103453e+03 -999 9.18048211e-01 6.376433208e-02 -1.84350601e-01
 129 5 752103 1.5863417226614076e+03 1.3338723108120591e+03 1.6485913695232022e-12 3.9405799026252510e+02 1.4337692874934178e+03 8.3702786086221022e+03 -999 9.23405613e-01 6.296982736e-02 -1.84287986e-01
 130 5 752103 1.5603664385756599e+03 1.3182654374038596e+03 1.6255169288864879e-12 3.9335380615987293e+02 1.4086479761630762e+03 8.4719707661863722e+03 -999 9.27890943e-01 6.227757460e-02 -1.84281186e-01
 131 5 752103 1.5147223581747362e+03 1.2955610426258302e+03 1.2691480156717251e-12 3.9470762061664766e+02 1.3618544318037450e+03 8.7175707165851691e+03 -999 9.33628479e-01 6.139986698e-02 -1.84355665e-01
 132 5 752103 1.5023375420414548e+03 1.2749683766118562e+03 1.2871160422850603e-12 3.9326619304371752e+02 1.3451113009225262e+03 8.7350296922421294e+03 -999 9.40337236e-01 6.034638587e-02 -1.84460494e-01
 133 5 752103 1.4999783589802689e+03 1.2642314835918789e+03 1.4871020901979594e-12 3.9277345045144938e+02 1.3422707113450431e+03 8.6984327829749709e+03 -999 9.47322553e-01 5.926957721e-02 -1.84620037e-01
 134 5 752103 1.4940462886411574e+03 1.2755821800510703e+03 1.6221369747023245e-12 3.9320107693531952e+02 1.3373950852377163e+03 8.6393457136686211e+03 -999 9.53561623e-01 5.832125402e-02 -1.84748175e-01
 135 5 752103 1.5062328958601013e+03 1.3024461318494186e+03 1.7937560994828348e-12 3.9587302713507950e+02 1.3464456692042129e+03 8.4460618601905826e+03 -999 9.57806858e-01 5.769131309e-02 -1.84812157e-01
 136 5 752103 1.4734983669263822e+03 1.2771072289328297e+03 1.4655865843880604e-12 3.9241820833498542e+02 1.3152136852005458e+03 8.4894603919384499e+03 -999 9.61847514e-01 5.713218379e-02 -1.84894686e-01
 137 5 752103 1.4613120289795843e+03 1.2696461827150108e+03 1.2500579806091171e-12 3.9159321470205560e+02 1.3050886726645706e+03 8.6063350485471965e+03 -999 9.66832213e-01 5.646057025e-02 -1.84964995e-01
 138 5 752103 1.4602381846402545e+03 1.2735265770550725e+03 1.1730186137177870e-12 3.9069754264282761e+02 1.3068262775356745e+03 8.7011072256078569e+03 -999 9.72643562e-01 5.571738419e-02 -1.85006781e-01
 139 5 752103 1.4839923586519853e+03 1.2925233332481198e+03 1.1580529511570013e-12 3.9094666729873092e+02 1.3280336499843850e+03 8.7476094193780445e+03 -999 9.78160956e-01 5.506083542e-02 -1.84997954e-01
 140 5 752103 1.4991505132967354e+03 1.2875570147086642e+03 1.1503300340446380e-12 3.8846655468358074e+02 1.3418210582107606e+03 8.6939332039403744e+03 -999 9.81401265e-01 5.470090911e-02 -1.84952310e-01
 141 5 752103 1.4539337737221817e+03 1.2738267395087150e+03 9.2216803148017833e-13 3.8213503930944711e+02 1.3029855711523664e+03 9.0461385866762630e+03 -999 9.85553225e-01 5.429099405e-02 -1.84918890e-01