TITLE = "005.02 ALPHA 2.50 GRIDLEVEL 5"

VARIABLES = "ITERATION"  "GRID_LEVEL"  "GRID_SIZE"  "CONTINUITY"  "MOMENTUMX"  "MOMENTUMY"  "MOMENTUMZ"  "ENERGY"  "TURB1"  "TURB2"  "CL_TOT"  "CD_TOT"  "CM_TOT"

DATASETAUXDATA ParticipantID   = "005"
DATASETAUXDATA SubmissionDate  = "10-31-2024"
DATASETAUXDATA Name            = "Jeffrey A. Housman"
DATASETAUXDATA Email           = "jeffrey.a.housman@nasa.gov"
DATASETAUXDATA Institution     = "NASA Ames Research Center"
DATASETAUXDATA SolverName      = "LAVA Curvilinear"
DATASETAUXDATA BasicAlgorithm  = "RANS"
DATASETAUXDATA TurbulenceModel = "SA-RC-comp-neg"
DATASETAUXDATA GridId          = "Multiblock"
DATASETAUXDATA Discretization  = "Finite difference"
DATASETAUXDATA Order           = "2"
DATASETAUXDATA DistanceCalc    = "Exact"
DATASETAUXDATA Notes           = " "

ZONE T = "005.02 - Alpha 2.50 - Grid Level 5"
AUXDATA Tstatic         = "271.0"
AUXDATA Deltat          = "-999"
AUXDATA GridFileName    = "ONERA-OAT15A_230mmChord_780mmSpan_upZ_2024_06_25-Structured_23mm_Level-5.x"
AUXDATA Misc            = " "
 0 5 752103 4.8294664913368004e+05 1.5734385708449001e+06 7.6803864346747329e-14 4.6168044997759961e+05 5.0826599881065747e+05 2.8691457951440774e+06 -999 1.28417274e-02 9.094846659e-01 -6.45762171e-03
 1 5 752103 7.2379699945527420e+05 1.1734371646877180e+06 6.5408788747951777e-14 3.5392467080354469e+05 7.0323301350687223e+05 1.8591283262002456e+06 -999 4.01977283e-02 8.306802368e-01 -1.91070148e-02
 2 5 752103 8.9197171131618251e+05 9.9894274957608350e+05 5.7033696862073901e-14 3.9147902691596578e+05 8.5517974918194686e+05 1.2094287129912565e+06 -999 7.26651011e-02 7.840124816e-01 -3.43489295e-02
 3 5 752103 1.0413796386859363e+06 8.9085768750425230e+05 5.0660879163278873e-14 4.6873403935412504e+05 9.9790800294649950e+05 7.9096399094890000e+05 -999 1.02441080e-01 7.535148319e-01 -4.80028788e-02
 4 5 752103 1.1696662077035387e+06 8.1554715218535322e+05 4.5705681320772853e-14 5.6351882081713434e+05 1.1327639928456072e+06 5.0989871350205969e+05 -999 1.29379641e-01 7.326840152e-01 -5.92219198e-02
 5 5 752103 1.3030343642292584e+06 8.1765833347280743e+05 4.1823433033647902e-14 6.6219951451171585e+05 1.2924595678644958e+06 3.2789571455752110e+05 -999 1.49035369e-01 7.162723902e-01 -6.74313514e-02
 6 5 752103 1.1893540647228051e+06 8.4610900441972131e+05 3.8896026720162599e-14 6.9689518758479203e+05 1.1815168408603095e+06 1.7396273294917375e+05 -999 1.62355286e-01 6.949789151e-01 -7.37361953e-02
 7 5 752103 1.2213951592672986e+06 8.5461326791405585e+05 3.6286058347821817e-14 7.2813630083880119e+05 1.2104315546342076e+06 1.2185989641149146e+05 -999 1.73679649e-01 6.718800053e-01 -7.94553521e-02
 8 5 752103 1.2851855891581639e+06 8.3661230256757105e+05 3.4365212390663402e-14 7.4862807537858759e+05 1.2943586519120387e+06 1.0024645811211578e+05 -999 1.82814491e-01 6.491255619e-01 -8.37390039e-02
 9 5 752103 1.5575878813402590e+06 9.1398530377390515e+05 3.2760425113182617e-14 8.2761535226544016e+05 1.6287498404276944e+06 8.8485243221587472e+04 -999 1.91812190e-01 6.237734299e-01 -8.75545663e-02
 10 5 752103 1.4546637557749052e+06 7.6086797864121874e+05 3.1845567799287912e-14 7.9627782388787775e+05 1.4998065957296307e+06 7.9403739443773782e+04 -999 1.96658632e-01 6.086998160e-01 -8.95493345e-02
 11 5 752103 1.3777503180787067e+06 7.8419911064970191e+05 3.0789140590973725e-14 7.8842088105161209e+05 1.4099392561724030e+06 7.1627513687556537e+04 -999 2.01563645e-01 5.919608828e-01 -9.16447080e-02
 12 5 752103 1.2781128971348701e+06 7.6484858658279607e+05 2.9768197641161404e-14 7.6018169973111700e+05 1.2947118622840319e+06 6.5857418437958288e+04 -999 2.05659311e-01 5.762884463e-01 -9.33647298e-02
 13 5 752103 1.4300428139813156e+06 8.1272969738925190e+05 2.8812505816132965e-14 7.9813196670565743e+05 1.4793520455471296e+06 6.1465112726242049e+04 -999 2.09499635e-01 5.598028173e-01 -9.50212246e-02
 14 5 752103 1.3444981869486067e+06 6.9561818006640731e+05 2.8244066834625236e-14 7.6133622454914998e+05 1.3730424270041212e+06 5.7542014450889023e+04 -999 2.11664934e-01 5.495915240e-01 -9.60206459e-02
 15 5 752103 1.5484184190994035e+06 8.3996449454323458e+05 2.7805087013364321e-14 7.9920687902776070e+05 1.6444715609082154e+06 5.4257533585972604e+04 -999 2.13794673e-01 5.391955092e-01 -9.70766212e-02
 16 5 752103 1.2988337690011943e+06 7.3164934908565751e+05 2.7262943282516759e-14 7.2932763140990457e+05 1.3642812326033255e+06 4.9849376527771012e+04 -999 2.15435774e-01 5.302467736e-01 -9.79038777e-02
 17 5 752103 1.1999994348120105e+06 6.8181984327802353e+05 2.6694793040272052e-14 7.0447970001383021e+05 1.2195891167470433e+06 4.6379923308816651e+04 -999 2.17117672e-01 5.201723378e-01 -9.87132170e-02
 18 5 752103 1.1743775281775149e+06 6.4172313646936696e+05 2.6294178937319185e-14 6.8633579765168333e+05 1.1856173819744990e+06 4.3616962076143020e+04 -999 2.18405644e-01 5.114272484e-01 -9.92707366e-02
 19 5 752103 1.3092901730250949e+06 6.8741311408501270e+05 2.5983172850890335e-14 6.9236700229291432e+05 1.3722059159078058e+06 4.1270660418497260e+04 -999 2.19456152e-01 5.034816016e-01 -9.96687363e-02
 20 5 752103 1.2924682169679210e+06 6.2754726213301020e+05 2.5764167966174269e-14 6.9491055007825815e+05 1.3400030172321517e+06 3.9155949954427728e+04 -999 2.20204707e-01 4.971862393e-01 -9.99274730e-02
 21 5 752103 1.1763475538027748e+06 6.5178040726455010e+05 2.5394117946530102e-14 6.5619120795776392e+05 1.2262751001976521e+06 3.6223859716748892e+04 -999 2.20803430e-01 4.910574969e-01 -1.00126276e-01
 22 5 752103 1.0465934299788127e+06 5.7881885760364763e+05 2.4960328044360349e-14 6.1135650035442866e+05 1.0700258987660552e+06 3.3937033196673648e+04 -999 2.21456318e-01 4.837485867e-01 -1.00340985e-01
 23 5 752103 1.0530458316128247e+06 5.9596428116614162e+05 2.4567448966498458e-14 5.9973274699547689e+05 1.0770889376869630e+06 3.2056599574148921e+04 -999 2.22029957e-01 4.767262349e-01 -1.00533689e-01
 24 5 752103 1.1919006600898749e+06 6.2693696691418078e+05 2.4286994324634755e-14 6.1817704605034902e+05 1.2502601340124940e+06 3.0519491006857963e+04 -999 2.22543774e-01 4.699846543e-01 -1.00715122e-01
 25 5 752103 1.1345117121976686e+06 5.4114809827889584e+05 2.4061138415680028e-14 5.9365755228153698e+05 1.1872608330614700e+06 2.9000654598151596e+04 -999 2.22852979e-01 4.656189658e-01 -1.00830725e-01
 26 5 752103 1.0158606869144657e+06 5.3203447889269353e+05 2.3666438851628437e-14 5.6230012989459583e+05 1.0600981230020942e+06 2.6961060321933815e+04 -999 2.23147492e-01 4.606862618e-01 -1.00942027e-01
 27 5 752103 9.0628064084081445e+05 5.1111858625727060e+05 2.3222846943011735e-14 5.2558725571971666e+05 9.2947314773962251e+05 2.5368999340194197e+04 -999 2.23473375e-01 4.550717917e-01 -1.01067972e-01
 28 5 752103 9.1341294950211782e+05 5.1022778093485639e+05 2.2842837902174748e-14 5.1224223505874292e+05 9.3438969436934043e+05 2.4064833587383189e+04 -999 2.23792518e-01 4.494921409e-01 -1.01192173e-01
 29 5 752103 1.0350054231366623e+06 5.4309227108530060e+05 2.2592314818661134e-14 5.2437969850687962e+05 1.0859276737489461e+06 2.2960809486063579e+04 -999 2.24089497e-01 4.442160237e-01 -1.01305707e-01
 30 5 752103 1.0008952236113168e+06 4.7359431407377380e+05 2.2478016413724119e-14 5.1034247998251225e+05 1.0479606987432367e+06 2.1871537310503991e+04 -999 2.24282577e-01 4.407021329e-01 -1.01378017e-01
 31 5 752103 8.8722532578071451e+05 4.7211212308819615e+05 2.2241712602510720e-14 4.7841798399041919e+05 9.3179210672839137e+05 2.0376951796529687e+04 -999 2.24470576e-01 4.367244183e-01 -1.01445715e-01
 32 5 752103 7.7418005821111251e+05 4.3653559273813886e+05 2.2001325088208466e-14 4.4228703191586223e+05 7.9718214663921460e+05 1.9219442874803764e+04 -999 2.24687216e-01 4.321410740e-01 -1.01523964e-01
 33 5 752103 7.6837986209829373e+05 4.2821455902080669e+05 2.1843965251763551e-14 4.2635380669546948e+05 7.8204335010465328e+05 1.8275270427918214e+04 -999 2.24905805e-01 4.275022516e-01 -1.01603237e-01
 34 5 752103 8.4568253446558607e+05 4.4951735337670316e+05 2.1811967086479842e-14 4.2643613691865187e+05 8.8640608387414494e+05 1.7438999489070800e+04 -999 2.25086817e-01 4.236412575e-01 -1.01669299e-01
 35 5 752103 9.6375677143989876e+05 5.4389960538377089e+05 2.1835921445415767e-14 4.4560041613237927e+05 1.0362528542153476e+06 1.6698029204669132e+04 -999 2.25255732e-01 4.200234451e-01 -1.01731389e-01
 36 5 752103 8.0113949358130281e+05 4.6741077271247335e+05 2.1655315125175155e-14 4.0386873870004842e+05 8.6498519728084584e+05 1.5566207848506525e+04 -999 2.25382894e-01 4.169057985e-01 -1.01776732e-01
 37 5 752103 6.6176895558711560e+05 3.8533782692087319e+05 2.1433739786411434e-14 3.6734391775571712e+05 6.9160691828388616e+05 1.4694158706789671e+04 -999 2.25537930e-01 4.131637058e-01 -1.01832507e-01
 38 5 752103 6.3264906353766774e+05 3.6338039907537034e+05 2.1237549138053308e-14 3.4780531474423152e+05 6.4256937765746471e+05 1.3971687012653561e+04 -999 2.25699162e-01 4.093375680e-01 -1.01891097e-01
 39 5 752103 7.0045775345788209e+05 3.7678398875077703e+05 2.1127030722006201e-14 3.4632672926610289e+05 7.2881856902504480e+05 1.3347564013054956e+04 -999 2.25845085e-01 4.059247913e-01 -1.01944580e-01
 40 5 752103 7.6382465026309644e+05 3.9355376211941289e+05 2.1082929135079016e-14 3.5271583295074647e+05 8.0710342069443502e+05 1.2776911559756803e+04 -999 2.25970866e-01 4.030154475e-01 -1.01990979e-01
 41 5 752103 6.4902615496252582e+05 3.6252693730760459e+05 2.0852887936842775e-14 3.2310668308060913e+05 6.9539793522300350e+05 1.1884549226258630e+04 -999 2.26077114e-01 4.002696674e-01 -1.02029049e-01
 42 5 752103 5.3431211955853109e+05 3.1509194911530043e+05 2.0564508401908960e-14 2.9267621803938213e+05 5.6074785515800014e+05 1.1172638983357545e+04 -999 2.26204447e-01 3.970523745e-01 -1.02075126e-01
 43 5 752103 4.9941382698650850e+05 2.8785986578525230e+05 2.0274588194441868e-14 2.7233447427458025e+05 5.0529146211706643e+05 1.0567689017312314e+04 -999 2.26347964e-01 3.935113633e-01 -1.02127494e-01
 44 5 752103 5.4376003806673759e+05 2.9424957724320062e+05 2.0077115549997786e-14 2.6764753857275291e+05 5.6142447458517516e+05 1.0046169776933508e+04 -999 2.26475211e-01 3.904444147e-01 -1.02174214e-01
 45 5 752103 5.9993123524811445e+05 3.3150950504104223e+05 1.9960131093983190e-14 2.6966873399242380e+05 6.3954710312932637e+05 9.5766354472991134e+03 -999 2.26582034e-01 3.879152997e-01 -1.02213581e-01
 46 5 752103 5.0702632662975305e+05 2.8057104686268728e+05 1.9721066742176966e-14 2.4682083371370268e+05 5.4534377040757600e+05 8.9017302182573785e+03 -999 2.26678320e-01 3.854081016e-01 -1.02247973e-01
 47 5 752103 4.1556283897898690e+05 2.4647169649387896e+05 1.9436037659727455e-14 2.2380071568052360e+05 4.3916760144063534e+05 8.3355998615077715e+03 -999 2.26791386e-01 3.825342434e-01 -1.02288697e-01
 48 5 752103 3.7857313402467576e+05 2.2496685114930826e+05 1.9159579972116500e-14 2.0634623809443886e+05 3.8461888943949546e+05 7.8451807665256665e+03 -999 2.26918206e-01 3.793916350e-01 -1.02334687e-01
 49 5 752103 4.0374444312295766e+05 2.2474959435926122e+05 1.8989919991588046e-14 1.9985503510975160e+05 4.1343479655344301e+05 7.4227400733711575e+03 -999 2.27037329e-01 3.765134985e-01 -1.02378110e-01
 50 5 752103 4.4111442685208254e+05 2.3919225051031893e+05 1.8911973702324997e-14 1.9930956851934508e+05 4.6318918650091148e+05 7.0460320362070734e+03 -999 2.27142436e-01 3.740262681e-01 -1.02416595e-01
 51 5 752103 3.7815395232381072e+05 2.1178198906252207e+05 1.8708179716714056e-14 1.8261547480067928e+05 4.0399964248253731e+05 6.5207052344281547e+03 -999 2.27231601e-01 3.717582226e-01 -1.02448315e-01
 52 5 752103 3.0844019559960271e+05 1.8665098455128318e+05 1.8443353337152875e-14 1.6422694899722436e+05 3.2797846643564512e+05 6.0722481961689855e+03 -999 2.27339933e-01 3.690554417e-01 -1.02487329e-01
 53 5 752103 2.7237081329467957e+05 1.6828112925361685e+05 1.8158608300204555e-14 1.4855964743088794e+05 2.7946144200431881e+05 5.6596248333565054e+03 -999 2.27464730e-01 3.660107539e-01 -1.02532779e-01
 54 5 752103 2.8076217706207494e+05 1.6445769694012793e+05 1.7968593088590341e-14 1.4057125072282483e+05 2.8716732889740344e+05 5.3070752731890780e+03 -999 2.27583564e-01 3.631800120e-01 -1.02576537e-01
 55 5 752103 2.9946257374164235e+05 1.7144350099132606e+05 1.7864919401429848e-14 1.3707657188408729e+05 3.1303211286440497e+05 4.9929321138604946e+03 -999 2.27690277e-01 3.606884966e-01 -1.02616336e-01
 56 5 752103 2.5755655760817626e+05 1.5315964210116796e+05 1.7675224882094304e-14 1.2590720862262204e+05 2.7416350565899070e+05 4.5780224852544534e+03 -999 2.27779187e-01 3.584440664e-01 -1.02649696e-01
 57 5 752103 2.1057008920857517e+05 1.3622198811426497e+05 1.7445018409396837e-14 1.1333322818249674e+05 2.2479405106148060e+05 4.2155174032887726e+03 -999 2.27886162e-01 3.557903407e-01 -1.02690426e-01
 58 5 752103 1.8185713276346395e+05 1.2282697058788025e+05 1.7190647590436637e-14 1.0163378065178415e+05 1.8915351018908282e+05 3.8893468481241302e+03 -999 2.28011576e-01 3.527463986e-01 -1.02738824e-01
 59 5 752103 1.7993400536504560e+05 1.1762998210533186e+05 1.7012803929140460e-14 9.4301488785539637e+04 1.8515962569836792e+05 3.6106670973854075e+03 -999 2.28135290e-01 3.498180585e-01 -1.02787324e-01
 60 5 752103 1.8444251799780576e+05 1.1688469927546894e+05 1.6921945197943991e-14 8.9814391736164005e+04 1.9188134232244224e+05 3.3733032014885616e+03 -999 2.28248604e-01 3.471940273e-01 -1.02832741e-01
 61 5 752103 1.5987669681646914e+05 1.0747029164068497e+05 1.6738008084141313e-14 8.3111460650810288e+04 1.6916720788333271e+05 3.0575808952387852e+03 -999 2.28337740e-01 3.449547350e-01 -1.02869353e-01
 62 5 752103 1.3106718392869597e+05 9.8019227430973158e+04 1.6504196472260382e-14 7.5276556493274882e+04 1.3967805308108282e+05 2.7849892560354206e+03 -999 2.28447124e-01 3.422494156e-01 -1.02914781e-01
 63 5 752103 1.1027978827962646e+05 8.9611009130736653e+04 1.6238925463574082e-14 6.7409969107907615e+04 1.1557854719465107e+05 2.5450527017568370e+03 -999 2.28578256e-01 3.390752063e-01 -1.02969757e-01
 64 5 752103 1.0377610076357379e+05 8.4505196391894089e+04 1.6019354279966171e-14 6.1708234379100271e+04 1.0741746068448036e+05 2.3436113505968310e+03 -999 2.28709810e-01 3.359702325e-01 -1.03025730e-01
 65 5 752103 1.0098240007480903e+05 8.1222662465379530e+04 1.5872516306258890e-14 5.7629555992426176e+04 1.0461221971286371e+05 2.1727359237164478e+03 -999 2.28831168e-01 3.331646269e-01 -1.03078836e-01
 66 5 752103 8.8198886597619712e+04 7.6427641191402727e+04 1.5678957034257267e-14 5.3224821740886728e+04 9.2532900820870898e+04 1.9494338346222382e+03 -999 2.28922071e-01 3.307908279e-01 -1.03118577e-01
 67 5 752103 7.2926280641752397e+04 7.1255617522713044e+04 1.5444431986276769e-14 4.8017429201575935e+04 7.6873752670886999e+04 1.7621801578850084e+03 -999 2.29033439e-01 3.278964020e-01 -1.03167373e-01
 68 5 752103 6.0329856357843841e+04 6.6070273325990929e+04 1.5144880852368362e-14 4.2401866378817111e+04 6.2748661306985116e+04 1.6049821477735811e+03 -999 2.29168310e-01 3.244223207e-01 -1.03226425e-01
 69 5 752103 5.3962748209213882e+04 6.2038381880892332e+04 1.4887231345872022e-14 3.7804510194629212e+04 5.5417007793921228e+04 1.4772416922213915e+03 -999 2.29303279e-01 3.209773112e-01 -1.03286026e-01
 70 5 752103 4.9746667438553835e+04 5.8864730242413672e+04 1.4689946572342128e-14 3.4237995134051838e+04 5.0794284281325759e+04 1.3730015456759418e+03 -999 2.29427012e-01 3.178208708e-01 -1.03342468e-01
 71 5 752103 4.3610116886931995e+04 5.5792501772140015e+04 1.4473808281924845e-14 3.1226687963618060e+04 4.4782067569868843e+04 1.2369580609527854e+03 -999 2.29507805e-01 3.150029577e-01 -1.03373988e-01
 72 5 752103 3.6411907952285481e+04 5.2313165324608213e+04 1.4209715722182222e-14 2.7748245130274245e+04 3.7350166979231100e+04 1.1438210299486273e+03 -999 2.29603521e-01 3.114901708e-01 -1.03409002e-01
 73 5 752103 3.0074929231682556e+04 4.8608834579219321e+04 1.3873894798535945e-14 2.4055049585824738e+04 3.0517259900752037e+04 1.1032299638776956e+03 -999 2.29714034e-01 3.071833156e-01 -1.03445342e-01
 74 5 752103 2.6154074274079434e+04 4.5488723958171206e+04 1.3546737435155154e-14 2.1076012202590024e+04 2.6389132974372209e+04 1.1018311324348354e+03 -999 2.29816736e-01 3.028522808e-01 -1.03474638e-01
 75 5 752103 2.3527203864259893e+04 4.2976234158994492e+04 1.3283489418719587e-14 1.8874939015709591e+04 2.3773489852333863e+04 1.1302989048510885e+03 -999 2.29904732e-01 2.987705490e-01 -1.03496825e-01
 76 5 752103 2.0721563425974091e+04 4.0561792505336656e+04 1.3024707519582832e-14 1.7077695359985129e+04 2.1221690813062203e+04 1.2095193556744184e+03 -999 2.29939823e-01 2.944484075e-01 -1.03456353e-01
 77 5 752103 1.7900003067859492e+04 3.7841716835064639e+04 1.2701237314666627e-14 1.5296401394215336e+04 1.8705083436869711e+04 1.4652058488485393e+03 -999 2.29996328e-01 2.887718099e-01 -1.03393424e-01
 78 5 752103 1.6090333805191174e+04 3.5102184168502950e+04 1.2342986939927164e-14 1.3956524241259736e+04 1.7294371143308552e+04 2.0709537300807192e+03 -999 2.30103562e-01 2.816096647e-01 -1.03310474e-01
 79 5 752103 1.5638725492920059e+04 3.2980501901515294e+04 1.2007249519730352e-14 1.3375652123653941e+04 1.7252582033416038e+04 3.2232597899371513e+03 -999 2.30281949e-01 2.742479716e-01 -1.03240831e-01
 80 5 752103 1.5783784647216202e+04 3.1405252622946940e+04 1.1743264721273909e-14 1.3185134266069408e+04 1.7747684132641698e+04 4.4695378967654433e+03 -999 2.30545835e-01 2.669451975e-01 -1.03210165e-01
 81 5 752103 1.5163273019472394e+04 2.9007998374856914e+04 1.1366229182534864e-14 1.2143299003613032e+04 1.7427083965847702e+04 1.1174072336401267e+04 -999 2.31194335e-01 2.567875359e-01 -1.03283022e-01
 82 5 752103 1.5193825572018633e+04 2.6815173551653246e+04 1.1112757603653115e-14 1.1470430877634179e+04 1.7650855272978471e+04 3.2581491514177465e+04 -999 2.32402182e-01 2.422493505e-01 -1.03620870e-01
 83 5 752103 1.5856140220652051e+04 2.6455604454647582e+04 1.1017452458267552e-14 1.1368199910661262e+04 1.8294746237605206e+04 6.1121069650068064e+04 -999 2.34124726e-01 2.250073424e-01 -1.04486156e-01
 84 5 752103 1.6519137760910093e+04 2.7320668802967848e+04 1.0965870254612984e-14 1.1503738942467897e+04 1.8918431839578912e+04 1.4660495738663329e+05 -999 2.35875743e-01 2.076149141e-01 -1.05966461e-01
 85 5 752103 1.7483283916450713e+04 3.4675102106076505e+04 1.0884569775799145e-14 1.2055264901045477e+04 2.4027539858952259e+04 1.7944437276510271e+05 -999 2.37306811e-01 1.894900291e-01 -1.08126509e-01
 86 5 752103 1.5194944698856156e+04 2.1820184783980098e+04 1.0216774415318009e-14 1.0574516273941514e+04 1.6529744444920067e+04 3.4016546587201767e+05 -999 2.38717091e-01 1.601155881e-01 -1.12862060e-01
 87 5 752103 1.3585037829319337e+04 2.3423739545965971e+04 9.2412636594758192e-15 9.5798948897770333e+03 1.4953313856127712e+04 3.4060861325819342e+05 -999 2.37578410e-01 1.365323798e-01 -1.17341197e-01
 88 5 752103 1.3221018174699660e+04 3.0989600295436754e+04 8.6164702867150587e-15 9.1542666939628343e+03 1.4967923550863641e+04 5.0347117127738736e+05 -999 2.37089389e-01 1.335551357e-01 -1.17827459e-01
 89 5 752103 1.3034406804285558e+04 3.3087894661341095e+04 8.3941213088487827e-15 8.8953869535930717e+03 1.4311123217568675e+04 2.1695148692913839e+05 -999 2.36817530e-01 1.321037919e-01 -1.18044924e-01
 90 5 752103 1.2892497872420494e+04 3.2779044179862787e+04 8.2572926450210737e-15 8.7110897089931277e+03 1.3921688887151216e+04 8.6552445479758186e+04 -999 2.36603435e-01 1.309739243e-01 -1.18209380e-01
 91 5 752103 1.1079422495181672e+04 1.9135195988467014e+04 7.9537450832591848e-15 6.7648417615660746e+03 1.1381995685391876e+04 2.6596227743099857e+05 -999 2.34202379e-01 1.187750499e-01 -1.19724964e-01
 92 5 752103 9.9475954323136903e+03 1.6450335116718412e+04 7.3588816781620904e-15 5.7703050123128296e+03 1.0091069803735816e+04 1.2361561120797521e+05 -999 2.33478926e-01 1.110850953e-01 -1.20646796e-01
 93 5 752103 9.3218482474077136e+03 1.4827037370522808e+04 6.8664904361208688e-15 5.0862458653576014e+03 9.3391955643577585e+03 5.5933781526394494e+04 -999 2.34182171e-01 1.060270924e-01 -1.21475224e-01
 94 5 752103 9.0490548425503748e+03 1.3910709929977642e+04 6.5524089869328280e-15 4.8027788154079999e+03 8.9980309253507512e+03 2.2378322198566610e+04 -999 2.35247438e-01 1.033485239e-01 -1.22074990e-01
 95 5 752103 9.0818925369773533e+03 1.3371586881836611e+04 6.4366111176560703e-15 4.6664853900433382e+03 9.0000428653010695e+03 1.7412600773333743e+04 -999 2.36310181e-01 1.015232794e-01 -1.22572429e-01
 96 5 752103 6.8027357467966267e+03 1.0212382952037176e+04 7.5692965630530747e-15 3.8722677868321025e+03 6.6813788176120606e+03 8.3588778269824834e+04 -999 2.49752151e-01 9.269063663e-02 -1.28143351e-01
 97 5 752103 6.2644118222222178e+03 9.7824357097010179e+03 8.5568433038235368e-15 3.9378091661445860e+03 6.2858292155425015e+03 8.5306671398507853e+04 -999 2.76340570e-01 8.264295659e-02 -1.38335365e-01
 98 5 752103 6.8509560598258040e+03 9.9251244613013205e+03 8.8311172340951926e-15 3.6719461046993197e+03 7.3315388423376144e+03 1.3612522066190455e+05 -999 3.10037446e-01 7.581375144e-02 -1.50663015e-01
 99 5 752103 6.3220978701948980e+03 7.9438864298805811e+03 8.3031336807678636e-15 3.0967628813275555e+03 7.2267339737910543e+03 8.3324147585086408e+04 -999 3.35020343e-01 7.247778104e-02 -1.59393755e-01
 100 5 752103 5.3939635780881445e+03 6.9162278499393060e+03 8.0419216803718099e-15 2.7508579286192439e+03 6.3059156379399301e+03 4.5353629482787561e+04 -999 3.55767487e-01 7.011331308e-02 -1.66069669e-01
 101 5 752103 3.7005287399236927e+03 4.9682420078711111e+03 3.4237498029232274e-13 2.4054739932130988e+03 3.9853379753663571e+03 8.2314139240860910e+04 -999 3.95991573e-01 6.562267799e-02 -1.77659530e-01
 102 5 752103 3.2544648441588174e+03 4.8218227376019431e+03 2.8264971655977028e-13 2.7760910166972285e+03 3.2155671158603195e+03 7.9874650961150415e+04 -999 4.36186613e-01 6.185994457e-02 -1.87201681e-01
 103 5 752103 3.2081306000935933e+03 4.3575607046771383e+03 3.8999419649445611e-13 2.3933411021919269e+03 3.1069326262573945e+03 1.1939353133773149e+05 -999 4.81893310e-01 5.844930107e-02 -1.95620680e-01
 104 5 752103 3.4570903482220674e+03 4.4390448849266604e+03 4.6959709090687570e-13 2.3563750495298650e+03 3.4042876819100779e+03 1.0536303209681474e+05 -999 5.24951102e-01 5.599729483e-02 -2.00978502e-01
 105 5 752103 3.5114430408359090e+03 5.2354794510420761e+03 3.6778170160824232e-13 2.0870392042493604e+03 3.5667426183790662e+03 3.3263761398950774e+04 -999 5.50237939e-01 5.510510005e-02 -2.03179692e-01
 106 5 752103 3.1153602358545645e+03 4.2311646226307175e+03 4.8564331515184879e-13 1.6308389318780223e+03 3.2022668852955135e+03 2.0073796533618719e+04 -999 5.70629875e-01 5.418520776e-02 -2.03816306e-01
 107 5 752103 2.9929396964388866e+03 3.5598173282669586e+03 5.2282227540401047e-13 1.6191823040188849e+03 3.1972546851113138e+03 2.1002005178566447e+04 -999 5.95246717e-01 5.326715200e-02 -2.03805964e-01
 108 5 752103 2.8975793466231798e+03 3.2745962753964641e+03 4.9007202614477032e-13 1.5369856430944576e+03 3.1133973315820895e+03 1.3538856859849770e+04 -999 6.13028752e-01 5.291187124e-02 -2.03158399e-01
 109 5 752103 2.8324455044654424e+03 3.0602402611807879e+03 5.6984846604998006e-13 1.4059415014211818e+03 3.0236591646665479e+03 1.1507083587036454e+04 -999 6.26798177e-01 5.285223786e-02 -2.02428751e-01
 110 5 752103 2.7978631503108454e+03 2.8656849843364212e+03 7.4852206528045293e-13 1.2916859505957664e+03 2.9516094465373376e+03 1.0901543290421108e+04 -999 6.41543276e-01 5.294923323e-02 -2.01560520e-01
 111 5 752103 2.6346425968080298e+03 2.7995679564129596e+03 6.3521002348483533e-13 1.1657610348960486e+03 2.7646390389102689e+03 1.0096757789091724e+04 -999 6.51837826e-01 5.309307308e-02 -2.00717037e-01
 112 5 752103 2.4989710628783409e+03 2.7060617064848047e+03 6.0314703005389150e-13 1.0697528552073929e+03 2.5982073575285413e+03 1.0109821048879356e+04 -999 6.64739299e-01 5.336557623e-02 -1.99595227e-01
 113 5 752103 2.3948459014801911e+03 2.5761655671986609e+03 6.8814146929782608e-13 9.9859335665656522e+02 2.4588960286082906e+03 1.0107539699749119e+04 -999 6.80685261e-01 5.382265673e-02 -1.98163533e-01
 114 5 752103 2.3242721441913636e+03 2.4785082574298131e+03 7.8241305202649651e-13 9.5196150856986105e+02 2.3645549377926350e+03 9.3451685535763809e+03 -999 6.91417999e-01 5.418701260e-02 -1.97137218e-01
 115 5 752103 2.2620536665368222e+03 2.3943936467151971e+03 8.5882976856818996e-13 9.1109511838418393e+02 2.2827167026949082e+03 8.8677292995408607e+03 -999 7.00702695e-01 5.452307455e-02 -1.96202352e-01
 116 5 752103 2.1812034559288381e+03 2.3459396454539128e+03 7.8196292526229997e-13 8.7871465585392343e+02 2.1848943060181878e+03 8.6685746277523522e+03 -999 7.09211537e-01 5.486558511e-02 -1.95327717e-01
 117 5 752103 2.1126061398076677e+03 2.2830791257974956e+03 7.7683085790666518e-13 8.5853580442584712e+02 2.0949873392535546e+03 8.7479552394123584e+03 -999 7.18655601e-01 5.524219320e-02 -1.94301783e-01
 118 5 752103 2.0440901214476899e+03 2.1891892422674564e+03 8.4941281546465724e-13 8.4555321926411864e+02 2.0021691731647215e+03 8.8999520064510107e+03 -999 7.30134685e-01 5.568583088e-02 -1.93013371e-01
 119 5 752103 1.9950148723041243e+03 2.1159730205090941e+03 9.3767020176040059e-13 8.3415779578839420e+02 1.9349003824013992e+03 8.4637182196551439e+03 -999 7.39933904e-01 5.603492915e-02 -1.91897713e-01
 120 5 752103 1.9639951129767035e+03 2.0523458906726378e+03 9.9156346860194058e-13 8.1923883016335697e+02 1.8871614630647025e+03 8.2444621632803883e+03 -999 7.48601905e-01 5.630953539e-02 -1.90918708e-01
 121 5 752103 1.8992259450894758e+03 1.9871361603478433e+03 8.7855204255864565e-13 8.0299973598171221e+02 1.8163489508862513e+03 8.0904313913135629e+03 -999 7.55446390e-01 5.648964392e-02 -1.90185951e-01
 122 5 752103 1.8387137754542530e+03 1.9214511185875547e+03 7.7389050032774188e-13 7.8851739498211123e+02 1.7463841494498945e+03 8.5137950031524942e+03 -999 7.64066911e-01 5.666268557e-02 -1.89199280e-01
 123 5 752103 1.7929226240395633e+03 1.8657003882258177e+03 7.6543230567589406e-13 7.6382682273633202e+02 1.6895897883263744e+03 8.5511381661901341e+03 -999 7.73665524e-01 5.676796254e-02 -1.88014344e-01
 124 5 752103 1.7700522201633205e+03 1.8310770939252723e+03 8.1631649121692961e-13 7.3723622409822474e+02 1.6568785382515666e+03 8.2229346307773321e+03 -999 7.80625678e-01 5.675945170e-02 -1.87104866e-01
 125 5 752103 1.7494785914849820e+03 1.8114521165212852e+03 8.6480363487686517e-13 7.1342807010136585e+02 1.6305636383588380e+03 8.0564776707710744e+03 -999 7.86652763e-01 5.669223122e-02 -1.86306170e-01
 126 5 752103 1.6852341427714259e+03 1.8208533714465882e+03 8.0678783037808751e-13 7.0374518737477058e+02 1.5673952987088742e+03 8.0845340084135314e+03 -999 7.92776961e-01 5.657781553e-02 -1.85599521e-01
 127 5 752103 1.6433583390446336e+03 1.8266185797933215e+03 9.1304616357811304e-13 7.2155564072571326e+02 1.5211302927907550e+03 8.5468092822948147e+03 -999 8.00594905e-01 5.634150754e-02 -1.84632765e-01
 128 5 752103 1.6166196686938099e+03 1.7891716231072758e+03 1.0761206622577811e-12 7.1620349098485576e+02 1.4907893844842938e+03 8.6157554544099912e+03 -999 8.08314130e-01 5.596980301e-02 -1.83592170e-01
 129 5 752103 1.6316202693183395e+03 1.7765829181987242e+03 1.2174052597453428e-12 7.1289808443925858e+02 1.4982560261839906e+03 8.5948734808939680e+03 -999 8.16529450e-01 5.545341379e-02 -1.82528907e-01
 130 5 752103 1.6299360659491742e+03 1.7534444884223119e+03 1.2875974208431014e-12 7.0519254768022608e+02 1.4894148358858092e+03 8.1128846483949574e+03 -999 8.20754465e-01 5.512366821e-02 -1.82026517e-01
 131 5 752103 1.5580023304616775e+03 1.7779922834810632e+03 1.1291408838546329e-12 6.9455899649886476e+02 1.4216662915625454e+03 8.3948349359119238e+03 -999 8.25483769e-01 5.476663439e-02 -1.81651746e-01
 132 5 752103 1.5107537307240266e+03 1.7964834703487202e+03 1.1070850143435354e-12 7.1642585637340915e+02 1.3772518039656129e+03 8.6427901334399739e+03 -999 8.31042269e-01 5.428803522e-02 -1.81173420e-01
 133 5 752103 1.4931272722264334e+03 1.7947918688636726e+03 1.2029531314285723e-12 7.4578623553044758e+02 1.3583687014824397e+03 8.7566528854199387e+03 -999 8.37383234e-01 5.367311202e-02 -1.80619446e-01
 134 5 752103 1.4951786976750923e+03 1.7944763182519077e+03 1.3101353996288381e-12 7.5807699473636637e+02 1.3587385566915791e+03 8.8295488354214831e+03 -999 8.43027917e-01 5.307800565e-02 -1.80172610e-01
 135 5 752103 1.5053651002557108e+03 1.8100578768715984e+03 1.3874858069468136e-12 7.5834131439511066e+02 1.3678371515981030e+03 8.7942192679004293e+03 -999 8.47608186e-01 5.257723244e-02 -1.79861868e-01
 136 5 752103 1.4788341879566576e+03 1.6083425377483404e+03 1.1022070329440503e-12 6.3325146053236051e+02 1.3328597070933645e+03 8.0638052381513071e+03 -999 8.49886368e-01 5.230878338e-02 -1.79615942e-01
 137 5 752103 1.4820144352910763e+03 1.4329705090454099e+03 8.6352834506583828e-13 5.1723803596366997e+02 1.3258552223527452e+03 8.2912653907691802e+03 -999 8.52902547e-01 5.195311562e-02 -1.79312226e-01
 138 5 752103 1.5056121674082010e+03 1.3113295206329783e+03 7.5009240406431787e-13 4.3364222957539880e+02 1.3434003409122213e+03 8.2894784327725429e+03 -999 8.56650431e-01 5.151175531e-02 -1.78970491e-01
 139 5 752103 1.5516530090888650e+03 1.2703374180594128e+03 7.4766361783414853e-13 3.8868046809244794e+02 1.3859909157569602e+03 8.3278831389250299e+03 -999 8.61089990e-01 5.099203736e-02 -1.78620177e-01
 140 5 752103 1.5636896790850531e+03 1.2478701806464942e+03 7.6185974035980935e-13 3.7710750353036968e+02 1.3957168111106175e+03 8.3558479191496135e+03 -999 8.63470795e-01 5.071452362e-02 -1.78463321e-01
 141 5 752103 1.5251997257192677e+03 1.2226677686264150e+03 5.4670025647525973e-13 3.7083145076949808e+02 1.3584880875886813e+03 8.8534500560670731e+03 -999 8.66933167e-01 5.031956081e-02 -1.78273262e-01