TITLE = "005.02 ALPHA 1.50 GRIDLEVEL 3"

VARIABLES = "ITERATION"  "GRID_LEVEL"  "GRID_SIZE"  "CONTINUITY"  "MOMENTUMX"  "MOMENTUMY"  "MOMENTUMZ"  "ENERGY"  "TURB1"  "TURB2"  "CL_TOT"  "CD_TOT"  "CM_TOT"

DATASETAUXDATA ParticipantID   = "005"
DATASETAUXDATA SubmissionDate  = "10-31-2024"
DATASETAUXDATA Name            = "Jeffrey A. Housman"
DATASETAUXDATA Email           = "jeffrey.a.housman@nasa.gov"
DATASETAUXDATA Institution     = "NASA Ames Research Center"
DATASETAUXDATA SolverName      = "LAVA Curvilinear"
DATASETAUXDATA BasicAlgorithm  = "RANS"
DATASETAUXDATA TurbulenceModel = "SA-RC-comp-neg"
DATASETAUXDATA GridId          = "Multiblock"
DATASETAUXDATA Discretization  = "Finite difference"
DATASETAUXDATA Order           = "2"
DATASETAUXDATA DistanceCalc    = "Exact"
DATASETAUXDATA Notes           = " "

ZONE T = "005.02 - Alpha 1.50 - Grid Level 3"
AUXDATA Tstatic         = "271.0"
AUXDATA Deltat          = "-999"
AUXDATA GridFileName    = "ONERA-OAT15A_230mmChord_780mmSpan_upZ_2024_06_25-Structured_23mm_Level-3.x"
AUXDATA Misc            = " "
 0 3 234820 2.5394750640684390e+05 6.2368612556003535e+05 4.4402904767867347e-14 2.1816772225115608e+05 2.5359614120617457e+05 1.0373384084516516e+06 -999 5.27602931e-03 6.035722460e-01 -8.95901668e-04
 1 3 234820 3.6324030497260625e+05 4.8602448218325619e+05 3.9142032107564900e-14 1.8083334140111209e+05 3.4861396702642087e+05 6.7096976590179489e+05 -999 2.40913659e-02 5.762295411e-01 -1.20795054e-02
 2 3 234820 4.4906719965912652e+05 4.2710283429814479e+05 3.5191025307137028e-14 2.0188704826715527e+05 4.2748955839128979e+05 4.3436226602596778e+05 -999 4.37666738e-02 5.648446313e-01 -2.44019700e-02
 3 3 234820 5.3103895088765630e+05 3.9124391783346952e+05 3.2146747280435198e-14 2.4229378432479195e+05 5.0608681755370123e+05 2.8052797653317795e+05 -999 6.02532497e-02 5.615414507e-01 -3.44713253e-02
 4 3 234820 6.0910895262487628e+05 3.6293548234621203e+05 2.9757182486292302e-14 2.9150396921314916e+05 5.8647826356554835e+05 1.7779550652684801e+05 -999 7.68901819e-02 5.630462772e-01 -4.36154201e-02
 5 3 234820 6.8573633795826905e+05 3.6817428280893143e+05 2.7899469653464222e-14 3.4404278215341450e+05 6.7202356745107810e+05 9.5613116069105105e+04 -999 8.91009225e-02 5.658917402e-01 -5.03803555e-02
 6 3 234820 6.3103351312855491e+05 4.1573622366411454e+05 2.6511680628005732e-14 3.6767610835286096e+05 6.2076108113452024e+05 6.7201868900988906e+04 -999 9.68459638e-02 5.626327257e-01 -5.54999289e-02
 7 3 234820 6.4625247406601650e+05 4.3837527361704619e+05 2.5256956650663907e-14 3.8433134339095041e+05 6.3141058812373364e+05 5.3521787049177728e+04 -999 1.03367072e-01 5.555886630e-01 -6.01494101e-02
 8 3 234820 7.0487300320174603e+05 4.3992605530416919e+05 2.4384077244477616e-14 3.9220066153800098e+05 7.0803746058627567e+05 4.5592024710963808e+04 -999 1.08961811e-01 5.447869745e-01 -6.35742698e-02
 9 3 234820 8.2155597736258118e+05 4.5931894170582312e+05 2.3783723912026108e-14 4.2479783072074933e+05 8.4309671262249711e+05 4.0618439933041991e+04 -999 1.14892070e-01 5.302638250e-01 -6.65656975e-02
 10 3 234820 8.0980148793915915e+05 4.2100504030454846e+05 2.3400790452283662e-14 4.1025165440580325e+05 8.3995524658990034e+05 3.6607880987617609e+04 -999 1.18423313e-01 5.208838230e-01 -6.82097545e-02
 11 3 234820 7.1186818272627133e+05 3.8486089405740250e+05 2.2889345263609599e-14 3.9376206817862485e+05 7.2248286538743356e+05 3.3057858287382813e+04 -999 1.22715649e-01 5.085788821e-01 -7.03199834e-02
 12 3 234820 6.7109328886299871e+05 4.0084121315997263e+05 2.2439133965393488e-14 3.7975550630776375e+05 6.7754550381816132e+05 3.0167111759542891e+04 -999 1.25703664e-01 4.990351881e-01 -7.18657789e-02
 13 3 234820 7.0597958497284923e+05 3.7560850474476704e+05 2.2034016596450250e-14 3.8193644873500342e+05 7.1569106773852196e+05 2.7835734319603205e+04 -999 1.28333881e-01 4.893369806e-01 -7.33379828e-02
 14 3 234820 6.9497097889589076e+05 3.6223912459436367e+05 2.1738006623970087e-14 3.6291009952084755e+05 7.1589738484279742e+05 2.5828709920468038e+04 -999 1.29723532e-01 4.830887851e-01 -7.42153871e-02
 15 3 234820 7.3658173475862690e+05 3.9330714658656344e+05 2.1478027476225602e-14 3.7797705930513999e+05 7.6351060393809201e+05 2.4248865944827387e+04 -999 1.31101996e-01 4.762773292e-01 -7.51514831e-02
 16 3 234820 6.6064945975421369e+05 3.8481441823985585e+05 2.1202654990734720e-14 3.5081125353191298e+05 6.8896887685026601e+05 2.2192606339795289e+04 -999 1.32057173e-01 4.708959604e-01 -7.58253588e-02
 17 3 234820 5.7040880977189762e+05 3.1557219859360985e+05 2.0882723474172076e-14 3.1882537987389375e+05 5.8167398332126136e+05 2.0517063585651333e+04 -999 1.33167136e-01 4.642885790e-01 -7.65957222e-02
 18 3 234820 5.6927009500028112e+05 3.2665664132939006e+05 2.0611263060362390e-14 3.1073167589147983e+05 5.8005453420462343e+05 1.9143701086998775e+04 -999 1.34181702e-01 4.578006753e-01 -7.72581073e-02
 19 3 234820 5.8269067679772410e+05 2.9446191842086043e+05 2.0409555403986966e-14 3.0639350067026867e+05 5.9347834180979454e+05 1.7974418271968480e+04 -999 1.35020261e-01 4.519563056e-01 -7.77612413e-02
 20 3 234820 6.0518189972791099e+05 3.0246982485216792e+05 2.0286006695683982e-14 2.9740247548305278e+05 6.3321221446175117e+05 1.6890125316009166e+04 -999 1.35611486e-01 4.474232580e-01 -7.80871342e-02
 21 3 234820 5.0827521272569580e+05 2.7044508336861507e+05 2.0076582197094302e-14 2.7360774785494158e+05 5.2914962934480642e+05 1.5563760475964711e+04 -999 1.36199404e-01 4.420407548e-01 -7.83937172e-02
 22 3 234820 4.5822451131012436e+05 2.6559700006243726e+05 1.9875958094964314e-14 2.5760270363223832e+05 4.6721950781618134e+05 1.4476168088938271e+04 -999 1.36735407e-01 4.366515653e-01 -7.86636025e-02
 23 3 234820 4.6486272057964478e+05 2.5048622326899954e+05 1.9688668791556786e-14 2.4911002769687536e+05 4.7052787675499223e+05 1.3572433027979510e+04 -999 1.37265234e-01 4.307433353e-01 -7.89280627e-02
 24 3 234820 4.6349170353339700e+05 2.4367845314011900e+05 1.9561797328583251e-14 2.3943315947561164e+05 4.7926680883254559e+05 1.2763119877951911e+04 -999 1.37596731e-01 4.264845573e-01 -7.90983830e-02
 25 3 234820 5.4590982355730678e+05 3.0673721511251415e+05 1.9436166082892333e-14 2.5522801249509098e+05 5.8145113628024783e+05 1.2067591838593995e+04 -999 1.37938867e-01 4.216134715e-01 -7.92833123e-02
 26 3 234820 4.4371314376362134e+05 2.7117149397468352e+05 1.9219999931517883e-14 2.2544190190448845e+05 4.7594933006123529e+05 1.1160117202752641e+04 -999 1.38160448e-01 4.175489899e-01 -7.94117585e-02
 27 3 234820 3.6889620221685601e+05 2.1887490138194413e+05 1.8995948755456737e-14 2.0244845631751648e+05 3.8302068052407476e+05 1.0408710935854328e+04 -999 1.38386148e-01 4.131675627e-01 -7.95477368e-02
 28 3 234820 3.5438742451045115e+05 2.0459895974703057e+05 1.8788020071206158e-14 1.9034217702009468e+05 3.5872797295950132e+05 9.7584430184056600e+03 -999 1.38612850e-01 4.085231885e-01 -7.96889282e-02
 29 3 234820 3.7039673474487185e+05 2.0301965559647046e+05 1.8654979205235011e-14 1.8495752580481267e+05 3.8600979883150582e+05 9.1906324764373439e+03 -999 1.38782542e-01 4.048917216e-01 -7.97968648e-02
 30 3 234820 4.3238016230861959e+05 2.4942687787935414e+05 1.8556227152750229e-14 1.9418870843072823e+05 4.6250895565616718e+05 8.6941049733686232e+03 -999 1.38959384e-01 4.010364525e-01 -7.99091658e-02
 31 3 234820 3.5497574241527152e+05 2.2367613111492811e+05 1.8355573962333919e-14 1.7290214328821783e+05 3.8526142326377169e+05 7.9960335826325863e+03 -999 1.39078002e-01 3.979188154e-01 -7.99833257e-02
 32 3 234820 2.8325481630415085e+05 1.8045472645927561e+05 1.8111619191356145e-14 1.5174329495067286e+05 3.0161875484454684e+05 7.4011988489418991e+03 -999 1.39216711e-01 3.942722029e-01 -8.00688244e-02
 33 3 234820 2.5307713553963215e+05 1.5799409066672291e+05 1.7860070911873113e-14 1.3698619228243001e+05 2.5781367413764508e+05 6.8857221328918040e+03 -999 1.39369107e-01 3.902435834e-01 -8.01611988e-02
 34 3 234820 2.6980044807843951e+05 1.5475090010916462e+05 1.7665187337526370e-14 1.3204606864708976e+05 2.7813614671136899e+05 6.4439564339635972e+03 -999 1.39506064e-01 3.865841772e-01 -8.02432742e-02
 35 3 234820 2.7791396549068380e+05 1.5545386779888009e+05 1.7537369454916609e-14 1.2881249333285309e+05 2.9369020586941350e+05 6.0560695378066039e+03 -999 1.39608503e-01 3.838138726e-01 -8.03044048e-02
 36 3 234820 2.3599312873966602e+05 1.3866899220567822e+05 1.7333494989013839e-14 1.1692946280397585e+05 2.5300464166069351e+05 5.5091150682454081e+03 -999 1.39694893e-01 3.809436130e-01 -8.03577649e-02
 37 3 234820 1.9081335542175139e+05 1.2553270706386548e+05 1.7085890517492339e-14 1.0381583515422333e+05 2.0328676162035411e+05 5.0389014253089808e+03 -999 1.39795165e-01 3.776165723e-01 -8.04203068e-02
 38 3 234820 1.6570710063109157e+05 1.1157849694960134e+05 1.6809120846952616e-14 9.2083725503452471e+04 1.6995844922468215e+05 4.6313744492795768e+03 -999 1.39906706e-01 3.739404653e-01 -8.04900812e-02
 39 3 234820 1.7233842848714945e+05 1.0861186196147252e+05 1.6564327241575997e-14 8.5949179827958214e+04 1.7723497668989000e+05 4.2816629942266136e+03 -999 1.40012573e-01 3.705002834e-01 -8.05558253e-02
 40 3 234820 1.8468994053522436e+05 1.1057340816429807e+05 1.6368065122488915e-14 8.3595763840928208e+04 1.9370466237245526e+05 3.9826870687120868e+03 -999 1.40106807e-01 3.674775434e-01 -8.06138016e-02
 41 3 234820 1.5555092909564453e+05 1.0087913374472279e+05 1.6150680390460201e-14 7.5492479700203738e+04 1.6741029590352159e+05 3.5885420835156433e+03 -999 1.40176045e-01 3.647999246e-01 -8.06589496e-02
 42 3 234820 1.2151030015359877e+05 9.0079862029802374e+04 1.5873341887242356e-14 6.6111683320476033e+04 1.3145407693564188e+05 3.2492863783823718e+03 -999 1.40260274e-01 3.615906279e-01 -8.07145013e-02
 43 3 234820 1.0005205363674271e+05 8.0649746139356415e+04 1.5562740330833611e-14 5.7553766124629707e+04 1.0428343980196543e+05 2.9509382628954954e+03 -999 1.40357308e-01 3.579877973e-01 -8.07784677e-02
 44 3 234820 9.8605780015859447e+04 7.7221487280362431e+04 1.5288125816579591e-14 5.2564486174237143e+04 1.0190332956730526e+05 2.6982029147759440e+03 -999 1.40450985e-01 3.546288712e-01 -8.08394902e-02
 45 3 234820 1.0206080780150564e+05 7.6736081090575579e+04 1.5062453535771486e-14 4.9785242840710518e+04 1.0755808341724044e+05 2.4854712172002460e+03 -999 1.40535687e-01 3.516954633e-01 -8.08938307e-02
 46 3 234820 8.7249700365446202e+04 7.0585973517695340e+04 1.4834523004033681e-14 4.5577182355096949e+04 9.4130442308114638e+04 2.1910840612643838e+03 -999 1.40593790e-01 3.491133635e-01 -8.09378755e-02
 47 3 234820 6.9657531416891492e+04 6.4355033763972162e+04 1.4546009915658145e-14 4.0690809128844528e+04 7.6246025905424671e+04 1.9440669808069786e+03 -999 1.40664233e-01 3.460067940e-01 -8.09921798e-02
 48 3 234820 5.5877426492949977e+04 5.8634876924238190e+04 1.4203416339105768e-14 3.5765756217508366e+04 6.0198765578016049e+04 1.7342532694759952e+03 -999 1.40748924e-01 3.423637587e-01 -8.10571972e-02
 49 3 234820 5.0543631582716334e+04 5.5161990633421476e+04 1.3876965303179269e-14 3.2214338675608342e+04 5.3194636578095888e+04 1.5597231695031974e+03 -999 1.40836393e-01 3.387447846e-01 -8.11230969e-02
 50 3 234820 4.8351089008734722e+04 5.3176237974357515e+04 1.3591324201548733e-14 2.9824429566352559e+04 5.0799508681989006e+04 1.4154025922010344e+03 -999 1.40918397e-01 3.354805679e-01 -8.11838388e-02
 51 3 234820 4.2125765093620568e+04 5.0393537180109553e+04 1.3330231293471802e-14 2.7622111377755067e+04 4.4796863990723570e+04 1.2323707668270636e+03 -999 1.40971957e-01 3.326251204e-01 -8.12249887e-02
 52 3 234820 3.4888328132696115e+04 4.7381859808936402e+04 1.3010950351742309e-14 2.5073586924114472e+04 3.7239730020912510e+04 1.0833613371225065e+03 -999 1.41038678e-01 3.291330193e-01 -8.12729102e-02
 53 3 234820 2.8642386264762015e+04 4.4242084508073574e+04 1.2619066326920035e-14 2.2341052352558258e+04 3.0091575204665383e+04 9.6191532839660192e+02 -999 1.41123618e-01 3.248757141e-01 -8.13267338e-02
 54 3 234820 2.5170060196004993e+04 4.1660066727975704e+04 1.2221560569295155e-14 2.0095286185362711e+04 2.5942774683417814e+04 8.6712198230603303e+02 -999 1.41214314e-01 3.205504194e-01 -8.13753196e-02
 55 3 234820 2.2991547027049412e+04 3.9629940398399602e+04 1.1882734060325264e-14 1.8531481603090881e+04 2.3418635025527994e+04 7.9312659923386855e+02 -999 1.41282770e-01 3.165831326e-01 -8.14201203e-02
 56 3 234820 2.0574534348205907e+04 3.7706427070243226e+04 1.1563684829649324e-14 1.7065273459368127e+04 2.0940723622593665e+04 7.0863244745750990e+02 -999 1.41310952e-01 3.127209715e-01 -8.14193307e-02
 57 3 234820 1.7946368631428366e+04 3.5489256679974547e+04 1.1175670727566962e-14 1.5390089711734447e+04 1.8232069951009140e+04 6.4562058807189578e+02 -999 1.41347624e-01 3.078066679e-01 -8.14072427e-02
 58 3 234820 1.5698137798056441e+04 3.3090039643303593e+04 1.0704397880977381e-14 1.3641461768351752e+04 1.6000356936601456e+04 6.0539630753969095e+02 -999 1.41406848e-01 3.016985875e-01 -8.13770312e-02
 59 3 234820 1.4340517233745381e+04 3.1013577785136073e+04 1.0255598679128765e-14 1.2244786038138751e+04 1.4868316913083912e+04 5.9656872570827363e+02 -999 1.41500023e-01 2.954334662e-01 -8.13321771e-02
 60 3 234820 1.3558181806942550e+04 2.9305075712681541e+04 9.8724204732470457e-15 1.1235511126249656e+04 1.4411899442097420e+04 5.8975425486749236e+02 -999 1.41636499e-01 2.893670482e-01 -8.12823259e-02
 61 3 234820 1.2553005713268789e+04 2.7429473038889839e+04 9.4485283694504527e-15 1.0309517574151800e+04 1.3774088296198062e+04 5.9653050570060077e+02 -999 1.41898746e-01 2.818899742e-01 -8.12064775e-02
 62 3 234820 1.1942713058132469e+04 2.5325633377743012e+04 8.9270906871952456e-15 9.5905550450234459e+03 1.3546023257723069e+04 6.4215032042033693e+02 -999 1.42439178e-01 2.717375399e-01 -8.11527297e-02
 63 3 234820 1.2069592080206447e+04 2.3328784949761404e+04 8.4735121595743081e-15 9.3654826566767642e+03 1.3951713643312076e+04 7.7375389055249991e+02 -999 1.43433192e-01 2.592416719e-01 -8.12062720e-02
 64 3 234820 1.2596948395347805e+04 2.1808929002041968e+04 8.1541611781184616e-15 9.4910916688930010e+03 1.4603001394489698e+04 1.0539114048631609e+03 -999 1.44862329e-01 2.463573348e-01 -8.14695686e-02
 65 3 234820 1.3049844765573176e+04 2.0698481896888385e+04 7.9564518981117524e-15 9.6062830214040387e+03 1.5073044020294479e+04 1.5941103972940391e+03 -999 1.46664770e-01 2.333796281e-01 -8.20152349e-02
 66 3 234820 1.2644760378099492e+04 1.8752233717167313e+04 7.5772773166650468e-15 8.6677170524811609e+03 1.4518136967999189e+04 3.9935710707638627e+03 -999 1.50065147e-01 2.130615282e-01 -8.36966980e-02
 67 3 234820 1.2224360847431089e+04 1.7590389675277635e+04 7.2582516900670181e-15 8.0688117332303691e+03 1.3637150354773650e+04 1.1541426878728302e+04 -999 1.55157594e-01 1.844837576e-01 -8.73488526e-02
 68 3 234820 1.1486881629934287e+04 1.7039848286905348e+04 6.8147103847697881e-15 8.0364811899588803e+03 1.2335490028933889e+04 2.0402215655294745e+04 -999 1.59083666e-01 1.580084808e-01 -9.25520095e-02
 69 3 234820 1.1255590229304196e+04 1.8571953900421504e+04 6.1543710794810625e-15 8.0187538315976835e+03 1.1839547125751486e+04 3.9133923692829005e+04 -999 1.59592635e-01 1.364487800e-01 -9.79483669e-02
 70 3 234820 1.1091486063595168e+04 1.9507796560322880e+04 5.5864088368919214e-15 7.7727598012406515e+03 1.3359374036901920e+04 5.2757637139930084e+04 -999 1.58315758e-01 1.303796285e-01 -9.94628658e-02
 71 3 234820 8.2613134473088703e+03 1.3880086366418182e+04 2.3285776583862667e-13 6.1847762509365430e+03 8.5056386494533926e+03 8.2231246020567385e+04 -999 1.52528664e-01 1.163935498e-01 -1.02163797e-01
 72 3 234820 6.9477779795887427e+03 1.4544694726075590e+04 3.8386456633940572e-13 4.7741622612185138e+03 6.9517155890627591e+03 4.4268601230958127e+04 -999 1.43856234e-01 1.047567506e-01 -1.03106790e-01
 73 3 234820 6.3277632969964634e+03 1.7736773199231062e+04 4.0913504946416304e-13 4.0092061333547858e+03 6.7931821193181831e+03 2.4384314765940097e+04 -999 1.39736885e-01 9.981398493e-02 -1.02850059e-01
 74 3 234820 6.1157918351177650e+03 2.0193698531512266e+04 4.0915969736538837e-13 3.8938468049119433e+03 8.5400394858806812e+03 1.5795215892792165e+04 -999 1.38903701e-01 9.834499065e-02 -1.02795948e-01
 75 3 234820 6.0072258962614251e+03 2.0003660263309877e+04 4.0767968260737567e-13 3.8347667433492356e+03 1.0528051934808804e+04 1.2081091161452710e+04 -999 1.38534490e-01 9.745740746e-02 -1.02790784e-01
 76 3 234820 5.3241569451907972e+03 1.4050169413364585e+04 1.2859979088560220e-12 3.5601661708485776e+03 7.1253128927202160e+03 8.4973859106811960e+03 -999 1.38454163e-01 9.338671391e-02 -1.03161469e-01
 77 3 234820 4.9486658924048143e+03 9.0444962812247977e+03 2.9520136812932941e-12 3.7585962979308224e+03 4.8392697856211871e+03 5.2054803402046919e+03 -999 1.41949716e-01 8.850199621e-02 -1.04752796e-01
 78 3 234820 5.0071672141816725e+03 7.8463372481466786e+03 4.9000238879889180e-12 3.8881446126910455e+03 4.7853193071849000e+03 5.3336247709184136e+03 -999 1.50415716e-01 8.443484014e-02 -1.08235510e-01
 79 3 234820 5.2713699452680648e+03 8.0207896167230538e+03 6.1505334197298744e-12 3.8414250347028587e+03 5.0629020031211785e+03 7.9873735900122638e+03 -999 1.60341791e-01 8.156870148e-02 -1.12521912e-01
 80 3 234820 5.3647252334905061e+03 8.3125992873152827e+03 6.7185195008713036e-12 3.7566909878179390e+03 5.1952794501063081e+03 1.0044894846733298e+04 -999 1.69023408e-01 7.961441902e-02 -1.16496245e-01
 81 3 234820 3.8198757388894551e+03 5.3193758788212672e+03 2.0140992354574865e-11 2.7723178069407822e+03 3.7951480761568778e+03 1.9746880931802327e+04 -999 1.99461949e-01 7.476924080e-02 -1.31944563e-01
 82 3 234820 3.1333666699236987e+03 3.8639626883162837e+03 1.9374594010476998e-11 2.2362711540496825e+03 3.1468603637172496e+03 1.1714792032733912e+04 -999 2.34109342e-01 6.901798749e-02 -1.49814055e-01
 83 3 234820 2.7523997077875265e+03 3.4861241819508250e+03 1.6729206050938219e-11 1.8639450029820216e+03 2.6327751628082160e+03 2.5771557141124405e+04 -999 2.66338252e-01 6.318629429e-02 -1.64916385e-01
 84 3 234820 2.7788928320989439e+03 3.6410866761216380e+03 2.3824179631293484e-11 1.5496988813273606e+03 2.5967637477623548e+03 1.9733644955126128e+04 -999 2.97807418e-01 5.740160308e-02 -1.76467703e-01
 85 3 234820 2.9912798198463292e+03 3.7629769439941861e+03 1.5898998387987772e-11 1.2256574645104922e+03 2.8390960855392500e+03 1.4458651594442395e+04 -999 3.29328313e-01 5.223077876e-02 -1.84598165e-01
 86 3 234820 2.2590819094549406e+03 3.0162145071615560e+03 2.1018629315934616e-11 8.7442086266567162e+02 2.1435560765439695e+03 9.5734263775128675e+03 -999 3.62133531e-01 4.907894409e-02 -1.88877817e-01
 87 3 234820 1.9141712372249090e+03 2.3978522302811716e+03 2.9812121411067601e-11 6.3213774265546886e+02 1.8238814384727812e+03 8.0892173518937907e+03 -999 3.99486225e-01 4.625621528e-02 -1.92368704e-01
 88 3 234820 1.8368369377808915e+03 2.0923896359170967e+03 3.1142628353702243e-11 5.1631470708544578e+02 1.7724221987008018e+03 7.3517390228134900e+03 -999 4.27361330e-01 4.462003423e-02 -1.93795594e-01
 89 3 234820 1.9065331309202118e+03 1.9443356628657643e+03 2.9884506298955237e-11 4.6197544269184976e+02 1.8760381692583624e+03 5.7595616285171418e+03 -999 4.46268908e-01 4.373990069e-02 -1.94192992e-01
 90 3 234820 2.0560889114798265e+03 1.8896086346791371e+03 2.9015768670075592e-11 4.3662730546348104e+02 2.0668681446927540e+03 4.8528942591865934e+03 -999 4.58615722e-01 4.327855409e-02 -1.94213912e-01
 91 3 234820 1.5713032474068652e+03 1.6551034993073299e+03 2.5677881591995829e-11 3.5950717539004182e+02 1.5333315551969047e+03 4.2138899526065779e+03 -999 4.97152232e-01 4.232073985e-02 -1.92123019e-01
 92 3 234820 1.2685501076416720e+03 1.4524799450884650e+03 2.3189882366362826e-11 3.0705781593441191e+02 1.2070668470110663e+03 3.8340411668796455e+03 -999 5.34761194e-01 4.144443360e-02 -1.89483324e-01
 93 3 234820 1.1272819146989004e+03 1.3482329409532958e+03 2.2127695248031318e-11 2.7925369886850825e+02 1.0599121565491566e+03 3.8670399613869349e+03 -999 5.59797175e-01 4.093066892e-02 -1.87319750e-01
 94 3 234820 1.0516789663992408e+03 1.2711943403001567e+03 2.0619263770943572e-11 2.5929178723721736e+02 9.8073863746780296e+02 4.0833123405865113e+03 -999 5.80231828e-01 4.054480030e-02 -1.85325771e-01
 95 3 234820 1.0177663197564659e+03 1.2405880653318486e+03 1.9870818299916499e-11 2.4977198443118593e+02 9.4663569790276438e+02 4.5005298421190028e+03 -999 5.91991148e-01 4.031860426e-02 -1.84036447e-01
 96 3 234820 9.2978786096357203e+02 1.2755606138847459e+03 1.8397087282273501e-11 2.6804170637294033e+02 8.6189959473799570e+02 5.7574178209331430e+03 -999 6.10684960e-01 3.991927225e-02 -1.82091752e-01
 97 3 234820 8.6401982287696217e+02 1.3264690805286150e+03 1.6852461007759769e-11 3.1055695838756594e+02 7.9926962808469125e+02 6.3350727279743442e+03 -999 6.30414150e-01 3.930235659e-02 -1.80136989e-01
 98 3 234820 8.1772013064048122e+02 1.2540473888404545e+03 1.5323564359297768e-11 3.5722485003547808e+02 7.5421685246298455e+02 5.6085446328166554e+03 -999 6.50706575e-01 3.846445238e-02 -1.78150018e-01
 99 3 234820 8.0516212751938042e+02 1.1536278663872270e+03 1.4323587717000749e-11 3.9142916802352318e+02 7.4000340380856869e+02 5.8793384950616100e+03 -999 6.67345098e-01 3.761499506e-02 -1.76429323e-01
 100 3 234820 8.0325517424420730e+02 1.1118978161231328e+03 1.3902586719940596e-11 4.0309965178099162e+02 7.3770552880015543e+02 5.9208268318757655e+03 -999 6.77502967e-01 3.703372424e-02 -1.75287219e-01
 101 3 234820 8.0325517424420730e+02 1.1763220213623833e+03 1.4124284535967802e-11 4.1263096133443111e+02 7.3848920639037772e+02 4.6150838392488758e+03 -999 6.77502967e-01 3.703372424e-02 -1.75287219e-01
 102 3 234820 8.2831152952347315e+02 1.2574846507455147e+03 1.4435918056698710e-11 4.4008436576617328e+02 7.6338035990114849e+02 4.5222420984416340e+03 -999 6.83325486e-01 3.658444023e-02 -1.74631924e-01
 103 3 234820 8.3130746157387262e+02 1.1178942397602550e+03 1.0061136167443663e-11 3.4764273983328803e+02 7.6280979023686371e+02 5.8295660605306421e+03 -999 6.86321655e-01 3.652061042e-02 -1.74475387e-01
 104 3 234820 9.3817271240736920e+02 9.8936980793256259e+02 6.1051494412941351e-12 2.7709008109058522e+02 8.6756415064332828e+02 5.7178340609741117e+03 -999 6.89859618e-01 3.643019752e-02 -1.74246854e-01
 105 3 234820 1.0558355949504630e+03 9.0772372741729089e+02 3.8053080711592770e-12 2.4565996859251453e+02 9.8487608131320508e+02 5.3174474244160019e+03 -999 6.93442811e-01 3.631882329e-02 -1.73939549e-01
 106 3 234820 1.0921385138852502e+03 8.8053361151310276e+02 3.0037547952133352e-12 2.3390173538677044e+02 1.0204340299619037e+03 4.6044686005227859e+03 -999 6.95404937e-01 3.625029810e-02 -1.73796179e-01
 107 3 234820 1.1367727043838916e+03 8.5266989762673415e+02 2.3272195366629578e-12 2.2675245008128149e+02 1.0644491480995903e+03 5.0315935864264011e+03 -999 6.97930247e-01 3.613896826e-02 -1.73554098e-01
 108 3 234820 1.1974855458124252e+03 8.2264919521348145e+02 1.8872397009697358e-12 2.2175636425346579e+02 1.1236075252064015e+03 5.5569528380058828e+03 -999 7.01433150e-01 3.594340540e-02 -1.73140256e-01
 109 3 234820 1.2350804310042759e+03 8.0832287061812633e+02 1.7927269066879881e-12 2.1812621341540341e+02 1.1600697811806472e+03 4.9281781009729202e+03 -999 7.03284046e-01 3.582275989e-02 -1.72909831e-01
 110 3 234820 1.2895010935993473e+03 8.0068528029288166e+02 1.7131572237202094e-12 2.1778995513061125e+02 1.2175681054836500e+03 5.1819369829845828e+03 -999 7.05606500e-01 3.564970003e-02 -1.72566631e-01
 111 3 234820 1.2871616343676587e+03 7.8539117799651376e+02 1.4881720830144157e-12 2.1502168753050563e+02 1.2151983778375320e+03 5.0721656253407009e+03 -999 7.07713679e-01 3.547888064e-02 -1.72197759e-01
 112 3 234820 1.3191468120487580e+03 7.7021559754406360e+02 1.4257593298637780e-12 2.1692474849200119e+02 1.2446892347003336e+03 5.2428023323460448e+03 -999 7.10571544e-01 3.523704832e-02 -1.71686606e-01
 113 3 234820 1.3892172489207342e+03 7.6483568785393709e+02 1.4482416865854368e-12 2.1644324336838278e+02 1.3183490667365538e+03 5.3436936728698092e+03 -999 7.14047265e-01 3.488912507e-02 -1.70920463e-01
 114 3 234820 1.3903006433080734e+03 7.5323647278533792e+02 1.4604845471754046e-12 2.0900114595718674e+02 1.3284258946805464e+03 4.8855956462476161e+03 -999 7.16567063e-01 3.462484515e-02 -1.70371662e-01
 115 3 234820 1.3952536208716735e+03 7.4507280383380521e+02 1.4728166108973449e-12 2.0908629518996779e+02 1.3318746398961703e+03 4.8110037640766586e+03 -999 7.19109079e-01 3.436336825e-02 -1.69862493e-01
 116 3 234820 1.3659105358783850e+03 7.2737225115523825e+02 1.4113752601499864e-12 2.0938999535928630e+02 1.2915335828145528e+03 5.0534016543104808e+03 -999 7.22607384e-01 3.403012830e-02 -1.69293373e-01
 117 3 234820 1.3329012087437500e+03 7.1084631572425860e+02 1.5050877054356283e-12 2.0122050454832575e+02 1.2648395456243120e+03 5.3359876246717004e+03 -999 7.27244632e-01 3.359537584e-02 -1.68649881e-01
 118 3 234820 1.3249425401586361e+03 7.0254216876935811e+02 1.5579557950979174e-12 2.0468886003986640e+02 1.2473101027560926e+03 5.3033711187617646e+03 -999 7.31464666e-01 3.319071280e-02 -1.68102285e-01
 119 3 234820 1.3883117453545476e+03 7.1931004359822180e+02 1.6121906749383645e-12 1.9787463783171034e+02 1.3337830725321619e+03 5.3754525283403163e+03 -999 7.35781412e-01 3.275145116e-02 -1.67547385e-01
 120 3 234820 1.3206085798973511e+03 7.0630916018724713e+02 1.6393430148857069e-12 2.0070827020352735e+02 1.2613496614342428e+03 5.0306768338821603e+03 -999 7.38603433e-01 3.247287336e-02 -1.67269015e-01
 121 3 234820 1.2170652282819010e+03 6.8834962431541635e+02 1.6286945220511585e-12 1.9600453532781120e+02 1.1421499350545221e+03 5.4509547270500334e+03 -999 7.43684684e-01 3.200353150e-02 -1.66776425e-01
 122 3 234820 1.0707428906699668e+03 6.5750922588243009e+02 1.6288788268201860e-12 1.9626919716015013e+02 1.0076154064366777e+03 5.6781331051027964e+03 -999 7.50412972e-01 3.138778305e-02 -1.66274928e-01
 123 3 234820 1.0808892968125992e+03 6.4408510389040634e+02 1.5135032293047475e-12 1.9752461201253669e+02 1.0094562543101649e+03 5.3559783194835245e+03 -999 7.55000276e-01 3.094632237e-02 -1.66110746e-01
 124 3 234820 1.0023919698086572e+03 6.4881942078010195e+02 1.4207730740823362e-12 1.8237848423359378e+02 9.5185276031875321e+02 5.5253915921365478e+03 -999 7.60832199e-01 3.031525875e-02 -1.65852405e-01
 125 3 234820 1.0553084455906376e+03 6.3803997536924442e+02 1.3251021742789917e-12 1.9697605027018122e+02 9.8180173588273010e+02 5.0996968887613302e+03 -999 7.63779725e-01 2.996670471e-02 -1.65722908e-01
 126 3 234820 8.3531771940112503e+02 5.8897629860766597e+02 1.2522709216420407e-12 1.7782069998597964e+02 7.7188191597445575e+02 5.5302921115054050e+03 -999 7.69894384e-01 2.925828636e-02 -1.65454307e-01
 127 3 234820 7.4093540358876498e+02 5.6130310112605514e+02 1.2064998171985273e-12 1.6924458053857157e+02 6.7451042250465912e+02 5.5000919085835867e+03 -999 7.76294592e-01 2.848253616e-02 -1.64900978e-01
 128 3 234820 6.7244955176196993e+02 5.4577249645328016e+02 1.0947347699352378e-12 1.5635829982195787e+02 6.1589296721130972e+02 5.2812616360105121e+03 -999 7.81466163e-01 2.785158607e-02 -1.64303257e-01
 129 3 234820 7.2194547929319288e+02 5.5734573086287764e+02 1.0119066554326853e-12 1.6289123674943681e+02 6.5512729197218721e+02 5.2029965952468974e+03 -999 7.87377503e-01 2.721765287e-02 -1.63747431e-01
 130 3 234820 6.5094406316585662e+02 5.3256342580897501e+02 1.0172261080132626e-12 1.5169257027296882e+02 5.8987506544654457e+02 4.7609402572858071e+03 -999 7.90811118e-01 2.690054536e-02 -1.63464967e-01
 131 3 234820 5.1534537171598458e+02 4.9460870148691112e+02 9.6356412833163889e-13 1.4771244780031529e+02 4.4979441292014400e+02 4.9084666165728022e+03 -999 7.97338926e-01 2.630949410e-02 -1.62840053e-01
 132 3 234820 4.5799293163279100e+02 4.7711827596187652e+02 1.0347043418755147e-12 1.4339656384331505e+02 3.9505880949374279e+02 4.7974587991884109e+03 -999 8.04000303e-01 2.576457099e-02 -1.62131147e-01
 133 3 234820 4.4038845920594071e+02 4.6703295625777758e+02 1.0053993051289711e-12 1.3955228743723936e+02 3.7426046018335546e+02 4.5990530665177703e+03 -999 8.08366234e-01 2.544249374e-02 -1.61610222e-01
 134 3 234820 4.5202632848070834e+02 4.8528392503843469e+02 9.4588522643189043e-13 1.3643849026409239e+02 3.8798403097599925e+02 4.5855100412204083e+03 -999 8.13045763e-01 2.510841530e-02 -1.61015487e-01
 135 3 234820 4.4838158478357002e+02 4.6627512242556651e+02 9.1138438773661224e-13 1.3349028272848983e+02 3.8023276844289262e+02 4.2730872499472644e+03 -999 8.15381692e-01 2.494275985e-02 -1.60707371e-01
 136 3 234820 4.4255841450875175e+02 4.4094189866096235e+02 7.0070384558999515e-13 1.2970900658857323e+02 3.7613758062692955e+02 4.5752959916192176e+03 -999 8.18941648e-01 2.469761657e-02 -1.60262072e-01
 137 3 234820 4.2730287083685073e+02 4.3149857620690625e+02 7.8112799595246075e-13 1.2556442994735752e+02 3.6169083963243725e+02 4.7223928794282901e+03 -999 8.22911425e-01 2.440259769e-02 -1.59762403e-01
 138 3 234820 4.2768532524918584e+02 4.2744165776322183e+02 7.8802643979335188e-13 1.2244673405246451e+02 3.6371979958128060e+02 4.7602737601712352e+03 -999 8.25542501e-01 2.418620169e-02 -1.59435879e-01
 139 3 234820 4.4396101883860530e+02 4.5013334743521392e+02 7.8285955787826980e-13 1.2017983169383353e+02 3.8036108695902078e+02 5.0930537180850488e+03 -999 8.28206264e-01 2.394726651e-02 -1.59095258e-01
 140 3 234820 4.5828623343565829e+02 4.3601734329752264e+02 7.7953159885843464e-13 1.1789386780066523e+02 3.9274506808349201e+02 5.1243775698893523e+03 -999 8.29534756e-01 2.381654482e-02 -1.58916707e-01
 141 3 234820 4.4645497600210183e+02 4.0739551891684948e+02 5.7803554722234183e-13 1.1504493372648980e+02 3.8307981471245023e+02 5.8076398433400554e+03 -999 8.31873771e-01 2.358462305e-02 -1.58610543e-01