TITLE = "005.02 ALPHA 3.10 GRIDLEVEL 1"

VARIABLES = "ITERATION"  "GRID_LEVEL"  "GRID_SIZE"  "CONTINUITY"  "MOMENTUMX"  "MOMENTUMY"  "MOMENTUMZ"  "ENERGY"  "TURB1"  "TURB2"  "CL_TOT"  "CD_TOT"  "CM_TOT"

DATASETAUXDATA ParticipantID   = "005"
DATASETAUXDATA SubmissionDate  = "10-31-2024"
DATASETAUXDATA Name            = "Jeffrey A. Housman"
DATASETAUXDATA Email           = "jeffrey.a.housman@nasa.gov"
DATASETAUXDATA Institution     = "NASA Ames Research Center"
DATASETAUXDATA SolverName      = "LAVA Curvilinear"
DATASETAUXDATA BasicAlgorithm  = "RANS"
DATASETAUXDATA TurbulenceModel = "SA-RC-comp-neg"
DATASETAUXDATA GridId          = "Multiblock"
DATASETAUXDATA Discretization  = "Finite difference"
DATASETAUXDATA Order           = "2"
DATASETAUXDATA DistanceCalc    = "Exact"
DATASETAUXDATA Notes           = " "

ZONE T = "005.02 - Alpha 3.10 - Grid Level 1"
AUXDATA Tstatic         = "271.0"
AUXDATA Deltat          = "-999"
AUXDATA GridFileName    = "ONERA-OAT15A_230mmChord_780mmSpan_upZ_2024_06_25-Structured_23mm_Level-1.x"
AUXDATA Misc            = " "
 0 1 52831 9.5872934920580228e+04 1.6311181781882996e+05 2.0240643594985270e-14 8.0782255145483388e+04 9.6284708745065931e+04 1.9747264115399387e+05 -999 5.38041143e-03 3.094432860e-01 -3.40132422e-03
 1 1 52831 1.2555547305192912e+05 1.3450031795395521e+05 1.8620376994479291e-14 6.9172698819974859e+04 1.2161735977244790e+05 1.2593815353114343e+05 -999 4.52040829e-02 3.185326831e-01 -2.02992015e-02
 2 1 52831 1.4865983973527129e+05 1.2154861538585546e+05 1.7434852503215048e-14 7.5002169240054151e+04 1.4215023846717496e+05 8.0296175439906190e+04 -999 8.73367034e-02 3.349098242e-01 -3.78292663e-02
 3 1 52831 1.7318563582812465e+05 1.1168759140054938e+05 1.6526497838218729e-14 8.3771848092374275e+04 1.6513322415777325e+05 5.0328108869691147e+04 -999 1.22240518e-01 3.534962710e-01 -5.31530697e-02
 4 1 52831 1.9818736209197019e+05 1.0213335228265198e+05 1.5862826049823004e-14 9.4499651733170685e+04 1.9061746093712610e+05 2.2851262330861875e+04 -999 1.51680866e-01 3.734199469e-01 -6.48810095e-02
 5 1 52831 2.1888764246064253e+05 9.9867810953209657e+04 1.5439961929316389e-14 1.0693354948889135e+05 2.1353311917179541e+05 1.8023677902982981e+04 -999 1.76138620e-01 3.934188119e-01 -7.40451686e-02
 6 1 52831 1.9574967723802777e+05 1.2217950812948331e+05 1.5120423778283501e-14 1.1161414127077382e+05 1.9225726161031853e+05 1.4881965186116209e+04 -999 1.93554427e-01 4.067763159e-01 -8.10101333e-02
 7 1 52831 1.8240855498380182e+05 1.3486460660092090e+05 1.4869458622607056e-14 1.1059714541190237e+05 1.7678751066388050e+05 1.2576428296370812e+04 -999 2.06828400e-01 4.151948722e-01 -8.67272318e-02
 8 1 52831 1.9878065303549403e+05 1.3186550809261572e+05 1.4709466257146021e-14 1.0580729280463167e+05 1.9957455638066347e+05 1.0717700823477733e+04 -999 2.16820026e-01 4.164378395e-01 -9.11298087e-02
 9 1 52831 1.9359178628892935e+05 1.1545107713934929e+05 1.4590547238533495e-14 1.0049335815690193e+05 1.9556102420871591e+05 9.3830529639188371e+03 -999 2.25702662e-01 4.135839336e-01 -9.47067811e-02
 10 1 52831 2.0897837699781661e+05 1.1778380421785402e+05 1.4517936319518464e-14 9.8677931288245018e+04 2.1592700611478515e+05 8.3246491119995844e+03 -999 2.33274291e-01 4.106781221e-01 -9.75397972e-02
 11 1 52831 1.6715746041819276e+05 1.0278539381462718e+05 1.4415807513788516e-14 8.7626877037018305e+04 1.7315167464623132e+05 7.1824289267056893e+03 -999 2.41097744e-01 4.074848411e-01 -1.00413552e-01
 12 1 52831 1.4931013083146067e+05 9.1900407212597827e+04 1.4337304558634903e-14 8.1258121055852913e+04 1.5019390680266061e+05 6.3110007242592292e+03 -999 2.48334366e-01 4.048000113e-01 -1.02978608e-01
 13 1 52831 1.3396035741336533e+05 8.2163382143998548e+04 1.4264173946779553e-14 7.4131075734417100e+04 1.3372959720655830e+05 5.6594592886222381e+03 -999 2.53728710e-01 4.027236035e-01 -1.04900857e-01
 14 1 52831 1.5015373019263361e+05 8.3558469784623478e+04 1.4216798285659279e-14 7.2966700142652306e+04 1.5470207235629929e+05 5.1444226814584317e+03 -999 2.57895044e-01 4.008156492e-01 -1.06464722e-01
 15 1 52831 1.2988489304229322e+05 6.8832235718840820e+04 1.4190529381920711e-14 6.5902995407580354e+04 1.3323390998519238e+05 4.7007120705662664e+03 -999 2.60302203e-01 3.992874827e-01 -1.07454279e-01
 16 1 52831 1.1662121498056206e+05 6.8476311910604389e+04 1.4126905598854067e-14 6.1665253317324656e+04 1.1961995163861626e+05 4.1686229623579557e+03 -999 2.62429210e-01 3.973802462e-01 -1.08400988e-01
 17 1 52831 1.0133134346148005e+05 6.6334940804293568e+04 1.4049244053540698e-14 5.5720393481623913e+04 1.0393661957089463e+05 3.7351573200743392e+03 -999 2.64552842e-01 3.951009912e-01 -1.09381646e-01
 18 1 52831 9.6947446814615323e+04 6.0660699627527036e+04 1.3969792903426617e-14 5.0792517657777345e+04 9.8321185007237844e+04 3.3838235864793414e+03 -999 2.66863282e-01 3.921944099e-01 -1.10466502e-01
 19 1 52831 8.7986841280730965e+04 5.4517103948072545e+04 1.3921475527665234e-14 4.6573287356179411e+04 8.9383886497715372e+04 3.0917733542191754e+03 -999 2.68434204e-01 3.898783904e-01 -1.11190368e-01
 20 1 52831 9.8501440764719242e+04 5.8251389555679663e+04 1.3868786394477900e-14 4.6051709218413394e+04 1.0277463686892642e+05 2.8401170778509622e+03 -999 2.69933401e-01 3.874324367e-01 -1.11854505e-01
 21 1 52831 7.9705364644786212e+04 5.3735081728576850e+04 1.3761609418253079e-14 4.0732507425550357e+04 8.4758275052102268e+04 2.5363658504941554e+03 -999 2.71143098e-01 3.848768419e-01 -1.12356265e-01
 22 1 52831 6.3736797222443063e+04 4.6673872475239732e+04 1.3630598127312582e-14 3.5632055555538020e+04 6.6650890483563344e+04 2.2894371186989674e+03 -999 2.72384036e-01 3.819543208e-01 -1.12850456e-01
 23 1 52831 5.6858998110084605e+04 4.2751570444463978e+04 1.3466977510854390e-14 3.1580461474599706e+04 5.7607482879253053e+04 2.0810771670879899e+03 -999 2.73694592e-01 3.784432218e-01 -1.13353643e-01
 24 1 52831 5.4916158693891695e+04 4.0352405112163389e+04 1.3335643833458428e-14 2.9081391458639257e+04 5.6578611420106172e+04 1.9036855931988039e+03 -999 2.74564259e-01 3.757114432e-01 -1.13680746e-01
 25 1 52831 5.9932203231963678e+04 4.1840731611803123e+04 1.3210524355407345e-14 2.8193927689853739e+04 6.3171464005213951e+04 1.7505309860059790e+03 -999 2.75307655e-01 3.730986063e-01 -1.13962237e-01
 26 1 52831 4.8673176464859804e+04 3.8250957328347155e+04 1.3061209689035972e-14 2.4984972676327576e+04 5.2548184102621031e+04 1.5422166134982417e+03 -999 2.75853516e-01 3.705039247e-01 -1.14164567e-01
 27 1 52831 3.6841590907621830e+04 3.3957123092762180e+04 1.2870808423175773e-14 2.1454933500447274e+04 3.9570131155359595e+04 1.3696944179929578e+03 -999 2.76474501e-01 3.673455845e-01 -1.14394670e-01
 28 1 52831 2.9564931111355942e+04 3.0754455518110339e+04 1.2654171606671778e-14 1.8455835277451151e+04 3.0356395483054865e+04 1.2275788973788344e+03 -999 2.77101117e-01 3.638848057e-01 -1.14626758e-01
 29 1 52831 2.9167615264024203e+04 2.9529321476696798e+04 1.2455381082604240e-14 1.6795419788838906e+04 3.0157755554213047e+04 1.1105418205076101e+03 -999 2.77619327e-01 3.607779911e-01 -1.14820884e-01
 30 1 52831 3.0545130803012082e+04 2.9158344443149123e+04 1.2269697523783590e-14 1.5869940032945371e+04 3.2247238437496828e+04 1.0138306036868095e+03 -999 2.78071742e-01 3.578721158e-01 -1.14994172e-01
 31 1 52831 2.5535481328949489e+04 2.7222942916936085e+04 1.2084877976406514e-14 1.4477927406254879e+04 2.7632991610214387e+04 8.7279820048326826e+02 -999 2.78368224e-01 3.552464456e-01 -1.15102885e-01
 32 1 52831 1.9735485012866433e+04 2.5128574091880197e+04 1.1842799890319685e-14 1.2878859319251787e+04 2.1512999885487035e+04 7.5818541007396072e+02 -999 2.78720247e-01 3.520109960e-01 -1.15231668e-01
 33 1 52831 1.5254467203686048e+04 2.3207904955136833e+04 1.1558862526517772e-14 1.1327863282182789e+04 1.6036762966633676e+04 6.6684460946467902e+02 -999 2.79114414e-01 3.481951420e-01 -1.15375840e-01
 34 1 52831 1.3689661806251923e+04 2.2041020167008806e+04 1.1289092539245407e-14 1.0258085040549815e+04 1.4058679692555950e+04 5.9266614988696028e+02 -999 2.79480095e-01 3.443985011e-01 -1.15511556e-01
 35 1 52831 1.3193067864869578e+04 2.1225992462135633e+04 1.1041396984145152e-14 9.5494390721086875e+03 1.3727227846520320e+04 5.3245776347496997e+02 -999 2.79786750e-01 3.409565915e-01 -1.15629126e-01
 36 1 52831 1.1532095910673161e+04 2.0147685801137359e+04 1.0795225457267949e-14 8.8667842276180163e+03 1.2068425926072243e+04 4.5393791129526403e+02 -999 2.79972294e-01 3.375577417e-01 -1.15678887e-01
 37 1 52831 9.7144476734972777e+03 1.8987318423220928e+04 1.0482596920739864e-14 8.0828367681556829e+03 1.0137838280562735e+04 3.9371306323688572e+02 -999 2.80189924e-01 3.332624875e-01 -1.15729739e-01
 38 1 52831 8.2728116658391391e+03 1.7803700008005857e+04 1.0087571131816003e-14 7.2665471611915345e+03 8.5349853298445541e+03 3.4438429195048326e+02 -999 2.80432595e-01 3.279919949e-01 -1.15775058e-01
 39 1 52831 7.5188297308395076e+03 1.6807296691247775e+04 9.7055076358047886e-15 6.5922022128905764e+03 7.7704141421560889e+03 3.0971593461203389e+02 -999 2.80656723e-01 3.225055774e-01 -1.15803784e-01
 40 1 52831 7.1148699056010873e+03 1.5994922419661883e+04 9.3496336033525158e-15 6.0732591897469147e+03 7.4701321774530543e+03 2.8475364953505095e+02 -999 2.80847543e-01 3.172359814e-01 -1.15816867e-01
 41 1 52831 6.4682124287889164e+03 1.5065101391399479e+04 8.9377808825682058e-15 5.5630831558490918e+03 6.9388403990738243e+03 2.6433379575048514e+02 -999 2.80972257e-01 3.107140081e-01 -1.15717542e-01
 42 1 52831 5.9390031825994747e+03 1.4023265122658173e+04 8.4153776081450247e-15 5.0600127758030858e+03 6.5588626541405210e+03 2.6976483819840240e+02 -999 2.81162884e-01 3.021831480e-01 -1.15573649e-01
 43 1 52831 5.7019564796499553e+03 1.3031975593353289e+04 7.8464442737800674e-15 4.6992607292279035e+03 6.4783850215357106e+03 2.8505791154095857e+02 -999 2.81454858e-01 2.923154748e-01 -1.15409761e-01
 44 1 52831 5.6548620379123095e+03 1.2286698841017951e+04 7.3883182332848409e-15 4.4509497399378861e+03 6.5503750029827324e+03 2.8212982476969194e+02 -999 2.81914230e-01 2.832282421e-01 -1.15270051e-01
 45 1 52831 5.7245344272810034e+03 1.1624272036541221e+04 6.9871874031231062e-15 4.3689550757613961e+03 6.6998433520851258e+03 2.8510887024704834e+02 -999 2.82555865e-01 2.736288420e-01 -1.15187878e-01
 46 1 52831 5.7255130406578337e+03 1.0817048763834935e+04 6.4950200652870061e-15 4.3226412715699480e+03 6.7134923552334412e+03 3.0768204963203533e+02 -999 2.83651794e-01 2.607397807e-01 -1.15218081e-01
 47 1 52831 5.7942951966385772e+03 9.8454654725962555e+03 5.9305690906817381e-15 4.3855104519812612e+03 6.7261772125975658e+03 3.3110095926974861e+02 -999 2.85587802e-01 2.420576081e-01 -1.15620260e-01
 48 1 52831 5.8393722461718389e+03 9.0130656894013810e+03 5.4008468209594276e-15 4.4419334669273676e+03 6.6592817126612035e+03 3.5783124494979427e+02 -999 2.87945585e-01 2.208083418e-01 -1.16789412e-01
 49 1 52831 5.7325498851496604e+03 8.5164616262178679e+03 4.9994166724039772e-15 4.3550562093457575e+03 6.4281149061450733e+03 4.4795492944690017e+02 -999 2.89693303e-01 2.001651225e-01 -1.18821248e-01
 50 1 52831 5.4440450369731598e+03 8.4477318158433609e+03 4.6341917715322094e-15 4.1785292191115532e+03 6.0124630418867573e+03 8.8928695929514993e+02 -999 2.89991176e-01 1.807704385e-01 -1.21512161e-01
 51 1 52831 4.6845973287910128e+03 7.6256487854190491e+03 4.1284440531558481e-15 3.9046685884408171e+03 4.9896292296970023e+03 2.1631054202883724e+03 -999 2.86633390e-01 1.552824013e-01 -1.25374011e-01
 52 1 52831 4.1159779645916169e+03 7.1753392550173048e+03 3.6746178742568632e-15 3.6828408000781760e+03 4.2560384044575330e+03 3.4445722450379485e+03 -999 2.78464721e-01 1.357122431e-01 -1.27372467e-01
 53 1 52831 3.7062336395870889e+03 7.2381881208535660e+03 3.2795256479677687e-15 3.1943907967482915e+03 3.7463888912889734e+03 5.8660999731976863e+03 -999 2.67736476e-01 1.209531248e-01 -1.26811591e-01
 54 1 52831 3.5760129783866400e+03 7.7299553172627402e+03 3.0070291295950052e-15 2.6390928378806225e+03 3.4689919461797958e+03 7.4930428554596565e+03 -999 2.61984342e-01 1.144630850e-01 -1.25363384e-01
 55 1 52831 3.5787002689862056e+03 8.1684763216377951e+03 2.8409269917266555e-15 2.3718311962872940e+03 3.3251023028623490e+03 8.4667175139949541e+03 -999 2.59336156e-01 1.107952520e-01 -1.24341767e-01
 56 1 52831 2.7944874770123188e+03 7.2033051305304734e+03 2.7280076084865384e-15 2.0809814155069948e+03 2.6996227733922433e+03 8.5010810708740464e+03 -999 2.56124227e-01 1.039881732e-01 -1.22144728e-01
 57 1 52831 2.2579171128314388e+03 5.7250214746775537e+03 2.6901341317000775e-15 1.9748533033583387e+03 2.2399282303314999e+03 6.5034846931742313e+03 -999 2.58814007e-01 9.693269705e-02 -1.20505163e-01
 58 1 52831 2.1044894969603324e+03 4.3601946306662667e+03 2.6996987737390791e-15 2.2181995278100640e+03 2.0259966032804045e+03 4.7025267567576811e+03 -999 2.70342036e-01 9.175995132e-02 -1.21515234e-01
 59 1 52831 2.1886584666926492e+03 3.7489636748390490e+03 2.6652950946819008e-15 2.1683547802199132e+03 2.1097043987777306e+03 3.9310115728709929e+03 -999 2.84800602e-01 8.817951993e-02 -1.24574716e-01
 60 1 52831 2.3466801190777815e+03 3.5818161020447487e+03 2.5571919319285556e-15 1.9995476833161367e+03 2.2305343952270850e+03 3.4153029865740627e+03 -999 2.94058049e-01 8.625893655e-02 -1.27098094e-01
 61 1 52831 2.0685066559834113e+03 2.8806363832825205e+03 2.6270131222464805e-15 1.5448791578818186e+03 2.0448760954425209e+03 3.6760181483206184e+03 -999 3.29945769e-01 8.072063709e-02 -1.39297092e-01
 62 1 52831 1.7554719187445762e+03 2.2398743800805873e+03 2.6345542825869532e-15 1.2987738904469886e+03 1.7571290196249599e+03 3.7896294963687810e+03 -999 3.63580464e-01 7.629348530e-02 -1.52563981e-01
 63 1 52831 1.5892011931906077e+03 1.9234128897191110e+03 2.6035488374123363e-15 1.1584813378118763e+03 1.5625177351149425e+03 4.3092458467246670e+03 -999 3.95548989e-01 7.262710997e-02 -1.65210237e-01
 64 1 52831 1.5105531317796731e+03 2.0033783037539351e+03 2.5614914744342750e-15 9.8940013546879936e+02 1.4643830228334423e+03 5.1218160118291635e+03 -999 4.27449921e-01 6.927470265e-02 -1.76234316e-01
 65 1 52831 1.4642749329758210e+03 2.0001605329869092e+03 2.6146754302591812e-15 8.5114178827302783e+02 1.4101807584193512e+03 5.4027707438435755e+03 -999 4.60301387e-01 6.616409463e-02 -1.85417726e-01
 66 1 52831 1.0555245339087589e+03 1.4251458705502480e+03 2.4814279323064468e-15 5.1925075980400311e+02 1.0084211503622232e+03 6.5061027605520649e+03 -999 5.18784713e-01 6.283996266e-02 -1.96407476e-01
 67 1 52831 9.7172555456604778e+02 1.1384045150683719e+03 2.5676346330084653e-15 3.7071533389536057e+02 9.3646546042334899e+02 5.5331913132119407e+03 -999 5.84315990e-01 6.161663646e-02 -2.04289426e-01
 68 1 52831 1.0307686300419030e+03 9.9005049377297121e+02 2.5640313355319937e-15 2.9247479360728880e+02 1.0248450550857765e+03 4.5429611760506605e+03 -999 6.40155605e-01 6.231685772e-02 -2.07081454e-01
 69 1 52831 1.2144978203054952e+03 9.3837024672574012e+02 2.7800290565718378e-15 2.4148516877124146e+02 1.2271941982122737e+03 3.4653720251925602e+03 -999 6.85727628e-01 6.393610260e-02 -2.06710925e-01
 70 1 52831 1.2808375667375458e+03 9.1662849428949005e+02 3.1327179253775245e-15 2.1454602761781527e+02 1.3004603561018205e+03 2.8824105495497547e+03 -999 7.11150913e-01 6.523064973e-02 -2.05125751e-01
 71 1 52831 6.6908503512040966e+02 7.0280980892136506e+02 3.9663232773007692e-15 1.8412350058776624e+02 6.4792033513018202e+02 2.4372467263247704e+03 -999 7.85968841e-01 6.892811828e-02 -1.99374054e-01
 72 1 52831 5.0222387301932804e+02 5.7694309003320404e+02 4.2914408811557049e-15 1.4386238175653983e+02 4.7466005674576371e+02 2.4425673546070070e+03 -999 8.44236725e-01 6.950971490e-02 -1.92751949e-01
 73 1 52831 4.2849694662705144e+02 4.9601874061764744e+02 4.0609448457048654e-15 1.2492615355035092e+02 3.9405803891788071e+02 2.4125561328996487e+03 -999 8.90285245e-01 6.741991548e-02 -1.87887504e-01
 74 1 52831 3.8938594075105306e+02 4.5174583779177362e+02 4.0291766015575959e-15 1.1642803050913777e+02 3.5305374740722118e+02 2.4799032500856183e+03 -999 9.18585267e-01 6.443498780e-02 -1.85795353e-01
 75 1 52831 3.6210720746602038e+02 4.2564241126226858e+02 4.0978096274430323e-15 1.1217732041745018e+02 3.2539813388412176e+02 2.6622154885125015e+03 -999 9.43339387e-01 6.144241704e-02 -1.84331807e-01
 76 1 52831 3.3826406494440249e+02 6.2224618848372450e+02 3.9894821647368987e-14 1.1482253031486131e+02 3.0665638922777049e+02 5.5722033541743376e+03 -999 9.61958381e-01 5.997727422e-02 -1.83386167e-01
 77 1 52831 3.2502652275026094e+02 6.8255242895070057e+02 6.6362092611283503e-14 1.2443713293288531e+02 2.9716875897276344e+02 9.7607812116878686e+03 -999 9.79543238e-01 5.860238563e-02 -1.82106109e-01
 78 1 52831 3.2450822404226756e+02 5.5745445310105652e+02 8.4292968128276175e-14 1.1072184016071847e+02 2.9435800062458617e+02 1.6322473322748998e+04 -999 9.95786655e-01 5.734809227e-02 -1.80718280e-01
 79 1 52831 3.3664959982434920e+02 4.9879808844322554e+02 9.7840791246703594e-14 1.0716522917372863e+02 3.0435223492504679e+02 2.4069350885783344e+04 -999 1.01336217e+00 5.596610823e-02 -1.78988159e-01
 80 1 52831 3.4574137995413821e+02 5.5924548527843888e+02 1.0077587276847733e-13 1.0489303578294749e+02 3.1638969591816954e+02 2.1049253714882641e+04 -999 1.02126608e+00 5.524214440e-02 -1.77926266e-01
 81 1 52831 3.2692974349431540e+02 5.5227240716776294e+02 1.6975615762799036e-13 1.2063336931971210e+02 2.9724283249623164e+02 9.7033737916368082e+03 -999 1.02944034e+00 5.482965834e-02 -1.77762363e-01
 82 1 52831 3.2692974349431535e+02 6.3068557103878993e+02 1.6975835879827706e-13 1.2236366329034456e+02 3.0110987198631835e+02 6.8898148390721726e+03 -999 1.02944034e+00 5.482965834e-02 -1.77762363e-01
 83 1 52831 3.3028224649512697e+02 7.0559959395397971e+02 1.6847450990586473e-13 1.3162985557498413e+02 3.0852592976058821e+02 6.6725096394240372e+03 -999 1.03184502e+00 5.456764387e-02 -1.77434275e-01
 84 1 52831 4.3091530345898252e+02 4.2479356808277680e+02 1.2680838121152408e-13 1.1870601330815305e+02 3.9350337407620373e+02 6.3263190344685727e+03 -999 1.03487422e+00 5.419432538e-02 -1.77174340e-01
 85 1 52831 4.6665505721895016e+02 3.9067669130483802e+02 1.2681850224734815e-13 1.1915400315721338e+02 4.3064446952217111e+02 9.3949001771546955e+03 -999 1.03692599e+00 5.383889670e-02 -1.76828556e-01
 86 1 52831 4.6555829867599437e+02 3.6667289775807347e+02 8.5935454446615390e-14 1.0989864227475638e+02 4.2747606478794319e+02 5.2702065159993881e+03 -999 1.03837284e+00 5.359108043e-02 -1.76536607e-01
 87 1 52831 4.6860212172141411e+02 3.4583241909520541e+02 6.3564373590228113e-14 1.0740340879824069e+02 4.2992811358794097e+02 5.3911538963369658e+03 -999 1.03999876e+00 5.324245704e-02 -1.76025491e-01
 88 1 52831 4.7104017401168824e+02 3.2553591073250590e+02 6.1185825412378354e-14 1.0245032431849759e+02 4.3285081710787529e+02 5.3822823049112731e+03 -999 1.04236805e+00 5.274368104e-02 -1.75198734e-01
 89 1 52831 5.0908532177757075e+02 3.2222198825431315e+02 6.1016345738690661e-14 9.9600338112218793e+01 4.6713601196393813e+02 5.1728579981667781e+03 -999 1.04345574e+00 5.254406423e-02 -1.74817455e-01
 90 1 52831 5.6793687559362866e+02 3.2387767295993109e+02 6.2701456595549648e-14 9.7904975994703619e+01 5.2890780992949499e+02 5.2507360325830687e+03 -999 1.04507567e+00 5.232300021e-02 -1.74396754e-01
 91 1 52831 5.2130943936574351e+02 3.1541706683862668e+02 1.0433581922330493e-13 9.3423858295156208e+01 4.7811381231349588e+02 5.3739413706888708e+03 -999 1.04817465e+00 5.210092571e-02 -1.74020561e-01
 92 1 52831 5.5055918334945750e+02 3.1522774386129896e+02 1.7371570080806244e-13 8.7440382808147376e+01 5.0304946313149310e+02 5.3278053959519657e+03 -999 1.05205134e+00 5.188490466e-02 -1.73630830e-01
 93 1 52831 5.2016659276970779e+02 3.1051966018774340e+02 2.2848828913204496e-13 7.8730129202323496e+01 4.8229948214544447e+02 5.2934775644965957e+03 -999 1.05642336e+00 5.180178945e-02 -1.73528251e-01
 94 1 52831 5.3596582916821751e+02 3.1755821702185494e+02 2.7461905925144041e-13 8.9304967032799695e+01 4.8418222181066767e+02 5.2671773121501428e+03 -999 1.06087491e+00 5.183038442e-02 -1.73648473e-01
 95 1 52831 5.5146846874460823e+02 3.1333628040709419e+02 2.8857360213858350e-13 7.7686927047322143e+01 5.1065177663690838e+02 5.1275218477600511e+03 -999 1.06288587e+00 5.174416717e-02 -1.73402840e-01
 96 1 52831 4.3694282984408949e+02 2.9212284861879249e+02 2.5534899194330339e-13 7.8861868263848862e+01 3.9118871216779172e+02 5.1336494237830502e+03 -999 1.06523352e+00 5.151331352e-02 -1.72739571e-01
 97 1 52831 4.1042475825939403e+02 2.8219900625914630e+02 2.7439916947386184e-13 7.2433757478070518e+01 3.6757941997029519e+02 5.0292261626549162e+03 -999 1.06785371e+00 5.125606317e-02 -1.71997847e-01
 98 1 52831 3.6947612953390376e+02 2.7483836581174660e+02 2.1285193054075488e-13 6.8193249398991682e+01 3.1916801793432796e+02 4.9496767427864088e+03 -999 1.07186761e+00 5.125222153e-02 -1.71935564e-01
 99 1 52831 3.9126509511381170e+02 2.7618068016425275e+02 1.6280201579175651e-13 6.5149549982691525e+01 3.4211695976764514e+02 4.9076646530415110e+03 -999 1.07596505e+00 5.143010721e-02 -1.72415521e-01
 100 1 52831 3.8555052083774871e+02 2.7718509954251363e+02 1.3805048072192624e-13 6.9157986733354250e+01 3.3275815524629996e+02 4.7992521463575222e+03 -999 1.08081762e+00 5.168669635e-02 -1.73175815e-01
 101 1 52831 3.3390226259483359e+02 2.6259942556181880e+02 8.7441656106297577e-14 6.7215124643696996e+01 2.8608577246269482e+02 4.8551639000350478e+03 -999 1.08332225e+00 5.179379616e-02 -1.73561989e-01
 102 1 52831 2.9200535108805485e+02 2.5192619107889487e+02 4.8384480174660241e-14 6.6172414056847884e+01 2.4752872655603574e+02 4.7183731010453666e+03 -999 1.08654298e+00 5.191565208e-02 -1.74044859e-01
 103 1 52831 2.4775727975308831e+02 2.4380258110213356e+02 2.5107598615737911e-14 6.1184850143258316e+01 2.0759434076719484e+02 4.6928808531590703e+03 -999 1.09078802e+00 5.205831250e-02 -1.74669934e-01
 104 1 52831 2.2191115282553605e+02 2.3711920767766622e+02 2.1494839825702711e-14 5.8359516700436309e+01 1.8284034807490551e+02 5.0932651944323807e+03 -999 1.09250442e+00 5.214141932e-02 -1.74991608e-01
 105 1 52831 1.9359568752513403e+02 2.3439027740263123e+02 1.9966679807556894e-14 5.5404993277759729e+01 1.5713338761158289e+02 5.3254212666990043e+03 -999 1.09460429e+00 5.225571346e-02 -1.75422788e-01
 106 1 52831 1.4583248875263956e+02 2.3917621806863050e+02 1.2155366888904028e-14 6.5206656649678919e+01 1.1371814705043992e+02 7.3517966151529190e+03 -999 1.10127737e+00 5.274217602e-02 -1.76989346e-01
 107 1 52831 1.1955406189994494e+02 2.3733359915868118e+02 8.0392251028095521e-15 7.3095902675518133e+01 8.8886649976569984e+01 7.6430818500442583e+03 -999 1.10729487e+00 5.325672906e-02 -1.78665310e-01
 108 1 52831 1.0995556785533067e+02 2.3971174070407716e+02 5.6553505732712498e-15 7.3147130663188904e+01 8.3590458257928049e+01 7.5389052255097131e+03 -999 1.11279056e+00 5.379086043e-02 -1.80314387e-01
 109 1 52831 1.0350994743989069e+02 2.4827938418526944e+02 4.2956571851010568e-15 7.5285052343681258e+01 7.9797502435936849e+01 9.0727545689757771e+03 -999 1.11652881e+00 5.413978080e-02 -1.81289592e-01
 110 1 52831 1.0605903166676298e+02 2.5018502908826133e+02 3.4596045962973299e-15 7.0323128731992512e+01 8.3770862981138507e+01 1.2297621176457569e+04 -999 1.11935781e+00 5.442854902e-02 -1.81963897e-01
 111 1 52831 1.1534153361311122e+02 2.5204004742824901e+02 3.8199845147560544e-15 8.2246470104220521e+01 9.3157766629619445e+01 1.4784071473466742e+04 -999 1.12106906e+00 5.474425623e-02 -1.82452387e-01
 112 1 52831 1.2410660010212167e+02 2.4354400997326454e+02 3.6447226070502606e-15 7.9033438286334174e+01 1.0001366634736959e+02 1.5352128598563266e+04 -999 1.12235432e+00 5.507208860e-02 -1.82855226e-01
 113 1 52831 1.2478717181233255e+02 2.5735382758133335e+02 2.9743621867804524e-15 8.8126600903111665e+01 1.0193600981491149e+02 2.0020186351029810e+04 -999 1.12034506e+00 5.485736719e-02 -1.81580865e-01
 114 1 52831 1.3648958683272221e+02 2.5341416935894568e+02 2.6447488950894068e-15 7.7298475647548443e+01 1.1374937150721341e+02 2.6654491923141344e+04 -999 1.11984917e+00 5.492140392e-02 -1.81261540e-01
 115 1 52831 1.3539714260128281e+02 2.4506294880779797e+02 2.5512134531505768e-15 7.8957641403153247e+01 1.0904618124024555e+02 2.4869654334348339e+04 -999 1.11715140e+00 5.466880722e-02 -1.79877805e-01
 116 1 52831 1.3632036864171653e+02 2.8685759394156190e+02 1.7734720254909859e-13 1.5539655264715330e+02 1.1276519698291273e+02 2.7663977049858044e+04 -999 1.11458246e+00 5.441701338e-02 -1.78622601e-01
 117 1 52831 1.4359375022887491e+02 2.6791631822763816e+02 2.3424896195254527e-13 1.0282251646791524e+02 1.1489227798748647e+02 2.6107468792229523e+04 -999 1.11164423e+00 5.409460709e-02 -1.77312666e-01
 118 1 52831 1.4835491929122426e+02 2.2921016835078532e+02 2.2873455157891359e-13 8.4374420106129151e+01 1.2035705496915241e+02 1.6841105609598038e+04 -999 1.10913620e+00 5.388971272e-02 -1.76291747e-01
 119 1 52831 1.5258531851176474e+02 2.7139161899734955e+02 2.0701684072489176e-13 9.6180893744173119e+01 1.2466170298354271e+02 3.4894969956675886e+04 -999 1.10635631e+00 5.365451670e-02 -1.75209113e-01
 120 1 52831 1.5806511385824365e+02 2.3348269260122342e+02 1.9176866673715076e-13 7.1372614089918230e+01 1.3133335281598588e+02 1.8831181376532873e+04 -999 1.10369905e+00 5.340981498e-02 -1.74192622e-01
 121 1 52831 1.4966789552917456e+02 2.2225224095038354e+02 1.4148932336328235e-13 6.2264429186003149e+01 1.2490382897470023e+02 2.4035596562735642e+04 -999 1.10090883e+00 5.311144498e-02 -1.73092085e-01
 122 1 52831 1.4822946047988100e+02 2.1069737355868861e+02 1.3043292284254651e-13 6.1506185191763436e+01 1.2588876060814319e+02 1.8303606632853134e+04 -999 1.09673622e+00 5.265687966e-02 -1.71454158e-01
 123 1 52831 1.5036629578203380e+02 2.0221046794875568e+02 1.3486011794120334e-13 6.5000344973388792e+01 1.2903149766047920e+02 1.8737397006483432e+04 -999 1.09154013e+00 5.205762279e-02 -1.69353661e-01
 124 1 52831 1.5706908224371551e+02 1.9765764425377932e+02 1.3039714889383614e-13 6.4810853761610218e+01 1.3483773068222618e+02 1.7423231503954423e+04 -999 1.08676360e+00 5.148442542e-02 -1.67415312e-01
 125 1 52831 1.6664608070458706e+02 2.1044157906543413e+02 1.2251899439908434e-13 6.4973528313134594e+01 1.4397163103551924e+02 1.9218797143085263e+04 -999 1.08269000e+00 5.098959084e-02 -1.65784576e-01
 126 1 52831 1.5881841501245125e+02 1.9368391071784009e+02 8.4751168090963333e-14 6.2396915917653921e+01 1.3831383603223929e+02 1.6366472656400732e+04 -999 1.07934340e+00 5.059031005e-02 -1.64482869e-01
 127 1 52831 1.5883335078750659e+02 1.8646266894581709e+02 4.9731732425661933e-14 6.2150710611168648e+01 1.3943248511835222e+02 1.7349056835113814e+04 -999 1.07518286e+00 5.009118696e-02 -1.62882032e-01
 128 1 52831 1.6313815170269584e+02 1.8191279958721489e+02 2.5200675279049509e-14 6.0333585769987181e+01 1.4405401592291111e+02 1.6196588177965135e+04 -999 1.07042417e+00 4.954814686e-02 -1.61119094e-01
 129 1 52831 1.7448804388526750e+02 1.8363460819487477e+02 1.5987911839333826e-14 5.7766562996941808e+01 1.5408655801456985e+02 1.6206349396702602e+04 -999 1.06619923e+00 4.908191233e-02 -1.59627648e-01
 130 1 52831 1.8605699658484721e+02 1.9468354196758173e+02 1.2830171442885744e-14 5.6515358366134876e+01 1.6528454821732615e+02 1.5720991364302035e+04 -999 1.06264060e+00 4.868771562e-02 -1.58395704e-01
 131 1 52831 1.7163400827619176e+02 1.7507186693841854e+02 1.0281881224078432e-14 5.5479525768450564e+01 1.5411777995405660e+02 1.4385257912812784e+04 -999 1.05983052e+00 4.837667953e-02 -1.57436561e-01
 132 1 52831 1.7055774319395158e+02 1.6888767866616038e+02 7.8933276691316523e-15 5.6563843535817753e+01 1.5496419890940530e+02 1.4485823814083615e+04 -999 1.05620720e+00 4.797799726e-02 -1.56214021e-01
 133 1 52831 1.7613135935455975e+02 1.6433102990189636e+02 6.2676402797966579e-15 5.8375643730815021e+01 1.6078480942693284e+02 1.2954931859369659e+04 -999 1.05215093e+00 4.753289790e-02 -1.54867331e-01
 134 1 52831 1.9227523090567828e+02 1.7814361420931675e+02 5.2595677842182278e-15 5.9767285584957094e+01 1.7571328376751532e+02 1.3294554888848656e+04 -999 1.04822594e+00 4.710299920e-02 -1.53585826e-01
 135 1 52831 2.0816401820242694e+02 1.8663769090306604e+02 4.5857949401246099e-15 6.0115081794239927e+01 1.8966092469363210e+02 1.2444999569769421e+04 -999 1.04488946e+00 4.673644915e-02 -1.52508769e-01
 136 1 52831 1.9628640270650641e+02 1.6588949599654885e+02 1.0753684689820948e-14 6.0119276206906861e+01 1.8089906974791751e+02 1.2161984498071457e+04 -999 1.04236282e+00 4.645232416e-02 -1.51706121e-01
 137 1 52831 1.9316647155137349e+02 1.5635447668715878e+02 2.1320034497949875e-14 6.2108623956033540e+01 1.8002826983191054e+02 1.2105739159465837e+04 -999 1.03939751e+00 4.612313867e-02 -1.50795382e-01
 138 1 52831 1.9758402535571733e+02 1.5441654653802982e+02 3.2336906330658368e-14 6.2653625916458431e+01 1.8513117875928771e+02 1.2637740279854257e+04 -999 1.03602383e+00 4.575347701e-02 -1.49791766e-01
 139 1 52831 2.1546741378260083e+02 1.7351439538904330e+02 4.2225718329782381e-14 6.1876327107484165e+01 2.0048893195040142e+02 1.1663162376262628e+04 -999 1.03255702e+00 4.539048906e-02 -1.48810273e-01
 140 1 52831 2.3181230863447010e+02 1.8649742312351702e+02 4.7474544383309181e-14 5.9857925601769480e+01 2.1324746161702276e+02 1.1199626789208001e+04 -999 1.03021316e+00 4.515828139e-02 -1.48181267e-01
 141 1 52831 2.1407858870685288e+02 1.6369477978786034e+02 3.9045459741650090e-14 5.8410676399333944e+01 1.9864845018662399e+02 1.0628386972471000e+04 -999 1.02857829e+00 4.497367401e-02 -1.47702279e-01
 142 1 52831 2.0605125716349195e+02 1.5469715477010760e+02 3.0032602329023178e-14 5.7789337736347420e+01 1.9174458641741373e+02 1.1630024837816891e+04 -999 1.02661339e+00 4.476327812e-02 -1.47160491e-01