TITLE = "005.02 ALPHA 3.40 GRIDLEVEL 4"

VARIABLES = "ITERATION"  "GRID_LEVEL"  "GRID_SIZE"  "CONTINUITY"  "MOMENTUMX"  "MOMENTUMY"  "MOMENTUMZ"  "ENERGY"  "TURB1"  "TURB2"  "CL_TOT"  "CD_TOT"  "CM_TOT"

DATASETAUXDATA ParticipantID   = "005"
DATASETAUXDATA SubmissionDate  = "10-31-2024"
DATASETAUXDATA Name            = "Jeffrey A. Housman"
DATASETAUXDATA Email           = "jeffrey.a.housman@nasa.gov"
DATASETAUXDATA Institution     = "NASA Ames Research Center"
DATASETAUXDATA SolverName      = "LAVA Curvilinear"
DATASETAUXDATA BasicAlgorithm  = "RANS"
DATASETAUXDATA TurbulenceModel = "SA-RC-comp-neg"
DATASETAUXDATA GridId          = "Multiblock"
DATASETAUXDATA Discretization  = "Finite difference"
DATASETAUXDATA Order           = "2"
DATASETAUXDATA DistanceCalc    = "Exact"
DATASETAUXDATA Notes           = " "

ZONE T = "005.02 - Alpha 3.40 - Grid Level 4"
AUXDATA Tstatic         = "271.0"
AUXDATA Deltat          = "-999"
AUXDATA GridFileName    = "ONERA-OAT15A_230mmChord_780mmSpan_upZ_2024_06_25-Structured_23mm_Level-4.x"
AUXDATA Misc            = " "
 0 4 430284 3.7959765864660306e+05 1.0657285746881610e+06 6.4510582397219515e-14 3.6267587515102280e+05 3.9890111650338123e+05 1.8160283449495237e+06 -999 1.42623267e-02 7.531819874e-01 -8.67906557e-03
 1 4 430284 5.4874795407317008e+05 8.1498679269227537e+05 5.5804030478883193e-14 2.8234864370925387e+05 5.3538779878553818e+05 1.1761358999082884e+06 -999 5.17235961e-02 7.039315243e-01 -2.40091016e-02
 2 4 430284 6.6734860336731235e+05 7.0630900432826637e+05 4.9266467345715837e-14 3.1078073007061367e+05 6.4126272434529895e+05 7.6464845494557486e+05 -999 9.58868606e-02 6.785415064e-01 -4.17158369e-02
 3 4 430284 7.7910838191942452e+05 6.3688940636477934e+05 4.4178848064721115e-14 3.6628622297709802e+05 7.4695412178737589e+05 4.9744304899354029e+05 -999 1.35505940e-01 6.641583085e-01 -5.81066359e-02
 4 4 430284 8.8098798183984275e+05 5.8490883646161074e+05 4.0158796122014402e-14 4.3413408575507160e+05 8.5207692707197275e+05 3.1789988338618190e+05 -999 1.70585202e-01 6.565011826e-01 -7.11188001e-02
 5 4 430284 9.8329568829151522e+05 5.8713601618284953e+05 3.6963980185219710e-14 5.0686778087045078e+05 9.6997325557259424e+05 2.0260883551201411e+05 -999 1.97671900e-01 6.513785795e-01 -8.08210141e-02
 6 4 430284 9.0201335690034973e+05 6.2679139426877990e+05 3.4509907143587472e-14 5.3522197808211355e+05 8.9241751933103625e+05 1.0178707458185384e+05 -999 2.16512724e-01 6.400982901e-01 -8.82346148e-02
 7 4 430284 9.2476743592765962e+05 6.4123405380692706e+05 3.2281456531530564e-14 5.5746340013028914e+05 9.1101330259872519e+05 8.0405593454531263e+04 -999 2.31824760e-01 6.255134302e-01 -9.47891718e-02
 8 4 430284 9.8457655875131628e+05 6.3410173000791506e+05 3.0640203614477368e-14 5.6915811582734529e+05 9.9076986669879523e+05 6.8847180772837208e+04 -999 2.43608564e-01 6.091247522e-01 -9.96776757e-02
 9 4 430284 1.1857823396664970e+06 6.8891119548950484e+05 2.9225589721505782e-14 6.2620501333518350e+05 1.2327429787582748e+06 6.1603044908640775e+04 -999 2.55530372e-01 5.890370105e-01 -1.04168126e-01
 10 4 430284 1.1118639627195913e+06 5.8448233196386718e+05 2.8431469191003451e-14 5.9596067373860837e+05 1.1503951410412630e+06 5.5470013649489643e+04 -999 2.61764173e-01 5.772837835e-01 -1.06438963e-01
 11 4 430284 1.0221060340925129e+06 5.7064368505848548e+05 2.7476142554556062e-14 5.8221854033275426e+05 1.0415121288378119e+06 4.9971127919792991e+04 -999 2.69011293e-01 5.628526942e-01 -1.09167550e-01
 12 4 430284 9.5102089548319881e+05 5.7473322412411158e+05 2.6716040660656318e-14 5.5942102269470529e+05 9.6259694776219991e+05 4.5642476161889499e+04 -999 2.74815634e-01 5.504757478e-01 -1.11263869e-01
 13 4 430284 1.0515919506167904e+06 5.8508005941553309e+05 2.6154954539857325e-14 5.8059173244159063e+05 1.0820216360303084e+06 4.2427562005973028e+04 -999 2.80592475e-01 5.370012113e-01 -1.13334684e-01
 14 4 430284 9.8230540991664596e+05 5.1589591728156636e+05 2.5735096512276713e-14 5.4547522235208296e+05 1.0067834845562567e+06 3.9576489192352550e+04 -999 2.83587889e-01 5.290541364e-01 -1.14461287e-01
 15 4 430284 1.1531660846686484e+06 6.5621396585763188e+05 2.5333700021900070e-14 5.9039033980796905e+05 1.2280342088388037e+06 3.7252822255893705e+04 -999 2.86872097e-01 5.196170674e-01 -1.15809568e-01
 16 4 430284 9.7536579360934044e+05 5.8127026942341297e+05 2.4893829810121698e-14 5.3266056510274496e+05 1.0332366810514377e+06 3.4129842451023404e+04 -999 2.88883065e-01 5.127589171e-01 -1.16704157e-01
 17 4 430284 8.6690415686581552e+05 4.8377960792085831e+05 2.4382458762929692e-14 5.0112510144585103e+05 8.8068382164385077e+05 3.1634265437653256e+04 -999 2.91256126e-01 5.038252835e-01 -1.17746633e-01
 18 4 430284 8.2508490622756386e+05 4.7412526080167771e+05 2.3968486304183057e-14 4.8002652391691180e+05 8.3411482194891584e+05 2.9540572228134948e+04 -999 2.92924819e-01 4.966228133e-01 -1.18427258e-01
 19 4 430284 9.5883779381057248e+05 5.1375236539335747e+05 2.3612259757125732e-14 4.9521234713706758e+05 1.0070057984255537e+06 2.7831896532034720e+04 -999 2.94521660e-01 4.890954932e-01 -1.19003207e-01
 20 4 430284 8.8015675239730452e+05 4.1984722219189996e+05 2.3418414865033135e-14 4.6927104988271795e+05 9.1265569889090757e+05 2.6271179644202577e+04 -999 2.95479489e-01 4.841874813e-01 -1.19296711e-01
 21 4 430284 8.0248838090663683e+05 4.2669636538785207e+05 2.3098502190948820e-14 4.4805379286562081e+05 8.2993262120848172e+05 2.4289323758888717e+04 -999 2.96419561e-01 4.785958648e-01 -1.19559116e-01
 22 4 430284 7.2136973324518965e+05 4.1283996055322676e+05 2.2750973635106193e-14 4.1824687526302174e+05 7.3810093164012162e+05 2.2686283444028639e+04 -999 2.97374367e-01 4.724718834e-01 -1.19813299e-01
 23 4 430284 7.4306906695473730e+05 4.1292072893613990e+05 2.2447521216266747e-14 4.1093377325005026e+05 7.6082172767926159e+05 2.1360213794170035e+04 -999 2.98322171e-01 4.657753540e-01 -1.20060963e-01
 24 4 430284 7.4469151855785400e+05 3.7353556549731729e+05 2.2288593790556864e-14 4.0211548553636344e+05 7.6163793066777254e+05 2.0189298142988922e+04 -999 2.98975166e-01 4.606506099e-01 -1.20235761e-01
 25 4 430284 8.0859728090316022e+05 4.1393116912157281e+05 2.2157829142114709e-14 4.0137525794438727e+05 8.5419567198748747e+05 1.9119066901958533e+04 -999 2.99510387e-01 4.561532120e-01 -1.20385221e-01
 26 4 430284 6.8227579390967963e+05 3.6768587162971246e+05 2.1919288444504965e-14 3.7002605520028679e+05 7.1827943223755271e+05 1.7753769987727483e+04 -999 2.99965582e-01 4.515429019e-01 -1.20511686e-01
 27 4 430284 6.0179128426072001e+05 3.4799427192356833e+05 2.1686598113568184e-14 3.4613779578743334e+05 6.1730922613289137e+05 1.6643895698761142e+04 -999 3.00430741e-01 4.466114166e-01 -1.20644210e-01
 28 4 430284 6.1206427249176137e+05 3.3795261970062979e+05 2.1495311522251742e-14 3.3547460393378872e+05 6.2372094389799878e+05 1.5717573494599244e+04 -999 3.00920491e-01 4.412185024e-01 -1.20787186e-01
 29 4 430284 6.2586199652404035e+05 3.1766971221001633e+05 2.1356366170291433e-14 3.2879337492650648e+05 6.4368418688165036e+05 1.4911288136981901e+04 -999 3.01279336e-01 4.371511473e-01 -1.20893523e-01
 30 4 430284 6.8908064632790477e+05 3.6434260888560308e+05 2.1232758280987960e-14 3.3118491203391901e+05 7.3196064489614824e+05 1.4181892603770686e+04 -999 3.01593534e-01 4.335155998e-01 -1.20985628e-01
 31 4 430284 5.7822950771999592e+05 3.1835919995479373e+05 2.1006565562309548e-14 3.0306164143507532e+05 6.1465646338887908e+05 1.3186146016384313e+04 -999 3.01853941e-01 4.299452735e-01 -1.21055468e-01
 32 4 430284 4.9239530168827955e+05 2.8863703655193670e+05 2.0748622441614119e-14 2.7838776366645272e+05 5.0934807039074990e+05 1.2354087191819237e+04 -999 3.02151234e-01 4.258428470e-01 -1.21134464e-01
 33 4 430284 4.7745156252610410e+05 2.7517471696427488e+05 2.0513826779738147e-14 2.6330128409349918e+05 4.8501088669982128e+05 1.1649464981553287e+04 -999 3.02455116e-01 4.216208070e-01 -1.21215143e-01
 34 4 430284 5.3374272414448659e+05 2.8329308404491039e+05 2.0346198134630236e-14 2.6327414874669694e+05 5.5418857419459522e+05 1.1041423254297877e+04 -999 3.02739497e-01 4.176329236e-01 -1.21291025e-01
 35 4 430284 5.2959352873064030e+05 2.6212440416196469e+05 2.0251484498023386e-14 2.5769196225289162e+05 5.5395600792420353e+05 1.0492051252378256e+04 -999 3.02935171e-01 4.148546989e-01 -1.21343604e-01
 36 4 430284 4.5877325801197236e+05 2.5230414811373793e+05 2.0037267867367363e-14 2.3776609352869325e+05 4.8413860789712850e+05 9.7860724008361431e+03 -999 3.03125298e-01 4.117294311e-01 -1.21391261e-01
 37 4 430284 3.8822700755485595e+05 2.3080221973078014e+05 1.9794072050344241e-14 2.1619734014809749e+05 4.0346180098915345e+05 9.1910408135954003e+03 -999 3.03337949e-01 4.082862589e-01 -1.21445574e-01
 38 4 430284 3.6931803842401458e+05 2.1457427908147775e+05 1.9549816784248739e-14 2.0166808315623493e+05 3.7368391256309825e+05 8.6589177973844708e+03 -999 3.03574229e-01 4.045106635e-01 -1.21506926e-01
 39 4 430284 3.9955250014916435e+05 2.1424806242097903e+05 1.9378949393304560e-14 1.9810042840058578e+05 4.1189078308837354e+05 8.1930251353661788e+03 -999 3.03780853e-01 4.012458745e-01 -1.21561380e-01
 40 4 430284 4.2767536521328666e+05 2.3297220295055106e+05 1.9271608055641446e-14 1.9733196547158106e+05 4.5322094055988832e+05 7.7798527493885313e+03 -999 3.03944471e-01 3.986781493e-01 -1.21605080e-01
 41 4 430284 3.6277348664182256e+05 2.0383461339358462e+05 1.9051908626255186e-14 1.8065959640876410e+05 3.8730269955259055e+05 7.2584836632257211e+03 -999 3.04091760e-01 3.960663927e-01 -1.21641821e-01
 42 4 430284 2.9898697005366196e+05 1.8444777621299194e+05 1.8787049882709954e-14 1.6349258804118697e+05 3.1366508967905957e+05 6.8130200127604339e+03 -999 3.04266196e-01 3.930470203e-01 -1.21686144e-01
 43 4 430284 2.7385225916854892e+05 1.6847307899921283e+05 1.8510855235203684e-14 1.5047487729765408e+05 2.7716626596536796e+05 6.4163035044972848e+03 -999 3.04457491e-01 3.898126326e-01 -1.21735592e-01
 44 4 430284 2.9458756402842730e+05 1.6977054200647498e+05 1.8281552586261094e-14 1.4584680312910120e+05 3.0203690211800218e+05 6.0587764179790038e+03 -999 3.04634444e-01 3.868796233e-01 -1.21782039e-01
 45 4 430284 3.2578411608363001e+05 1.8136890453164559e+05 1.8108517661332459e-14 1.4611343557435923e+05 3.4212705825021409e+05 5.7395468416713165e+03 -999 3.04792559e-01 3.842921598e-01 -1.21824113e-01
 46 4 430284 2.7562972532306798e+05 1.6289296067475327e+05 1.7894841419731130e-14 1.3361458313993589e+05 2.9519647965475981e+05 5.3246064869186694e+03 -999 3.04918922e-01 3.819955646e-01 -1.21855626e-01
 47 4 430284 2.2071248010264235e+05 1.4342687165523789e+05 1.7630453443130468e-14 1.1911350706940144e+05 2.3445249722184113e+05 4.9701661457364735e+03 -999 3.05074501e-01 3.792504362e-01 -1.21894916e-01
 48 4 430284 1.9365543504638792e+05 1.2950620979579001e+05 1.7340641640615971e-14 1.0727136439375194e+05 1.9721772027799379e+05 4.6618046143143602e+03 -999 3.05250620e-01 3.762188322e-01 -1.21940158e-01
 49 4 430284 2.0266085234448273e+05 1.2823409918611318e+05 1.7096878026962930e-14 1.0162935375666438e+05 2.0756114642934050e+05 4.3594957457652044e+03 -999 3.05416684e-01 3.734233773e-01 -1.21983599e-01
 50 4 430284 2.1985632580827866e+05 1.3663461402149466e+05 1.6915179283512939e-14 9.9582843544404925e+04 2.3215682676130958e+05 4.1025918950038003e+03 -999 3.05559873e-01 3.710490099e-01 -1.22021827e-01
 51 4 430284 1.8639303772651366e+05 1.1975902997620696e+05 1.6713338942501371e-14 9.0837562524357287e+04 2.0030983480217858e+05 3.7624441359497305e+03 -999 3.05682767e-01 3.688297475e-01 -1.22052969e-01
 52 4 430284 1.4981296102938760e+05 1.0603268981895539e+05 1.6466416897743611e-14 8.1227731640731741e+04 1.6108360431770294e+05 3.4665487564066430e+03 -999 3.05829777e-01 3.662314902e-01 -1.22090908e-01
 53 4 430284 1.2742698810523309e+05 9.5844278764731309e+04 1.6180452915534556e-14 7.2388447586893410e+04 1.3272053808618049e+05 3.2013039059339158e+03 -999 3.06001739e-01 3.632571745e-01 -1.22136272e-01
 54 4 430284 1.2644433390589751e+05 9.2191400281965340e+04 1.5932190070877008e-14 6.7090198435596001e+04 1.3032756363437505e+05 2.9690437323751562e+03 -999 3.06168191e-01 3.604331193e-01 -1.22181562e-01
 55 4 430284 1.3081591844181757e+05 9.2331440333301187e+04 1.5729931743525472e-14 6.4071343582326423e+04 1.3699546207610681e+05 2.7714902784126598e+03 -999 3.06316268e-01 3.579490249e-01 -1.22223559e-01
 56 4 430284 1.1267105815638413e+05 8.4902482084354357e+04 1.5537312374218966e-14 5.9142093452979934e+04 1.2020962668194460e+05 2.4971727721616776e+03 -999 3.06438198e-01 3.557319903e-01 -1.22257495e-01
 57 4 430284 9.1356602192266524e+04 7.7568309835808337e+04 1.5294502895131949e-14 5.3399298766410990e+04 9.8323692602457813e+04 2.2565786545912479e+03 -999 3.06588338e-01 3.530449679e-01 -1.22300239e-01
 58 4 430284 7.5612006039605680e+04 7.1034068291353440e+04 1.4994111570938187e-14 4.7664943423739940e+04 7.9907178078088444e+04 2.0503908462691916e+03 -999 3.06767148e-01 3.498938203e-01 -1.22352835e-01
 59 4 430284 7.0395130542068116e+04 6.7154045074474925e+04 1.4720252560269435e-14 4.3544114812462270e+04 7.3153790730405570e+04 1.8762199904590320e+03 -999 3.06945791e-01 3.467804706e-01 -1.22408178e-01
 60 4 430284 6.8320827913701040e+04 6.4716999655717809e+04 1.4494896450868391e-14 4.0689469678336587e+04 7.0996873207918354e+04 1.7292821876929427e+03 -999 3.07107439e-01 3.439676726e-01 -1.22461979e-01
 61 4 430284 5.9663376025539015e+04 6.1271647265789630e+04 1.4278716186243084e-14 3.7751260307365024e+04 6.2736491985709763e+04 1.5406593713409254e+03 -999 3.07233458e-01 3.415126720e-01 -1.22502355e-01
 62 4 430284 4.9462870808740940e+04 5.7528202118470494e+04 1.3993868016814196e-14 3.4294767483666619e+04 5.2166030688111256e+04 1.3818052266570194e+03 -999 3.07387542e-01 3.385095510e-01 -1.22552411e-01
 63 4 430284 4.0973882337587915e+04 5.3700712488444959e+04 1.3661710020130221e-14 3.0584752713526817e+04 4.2521743162967163e+04 1.2498049826708905e+03 -999 3.07571624e-01 3.348952857e-01 -1.22613778e-01
 64 4 430284 3.6546980528676526e+04 5.0645168261835526e+04 1.3332510124265836e-14 2.7549598929358923e+04 3.7329838236203301e+04 1.1428136434365053e+03 -999 3.07750865e-01 3.312991991e-01 -1.22676775e-01
 65 4 430284 3.3677882885818392e+04 4.8232604834342579e+04 1.3046149976026534e-14 2.5195338456519839e+04 3.4129371501668829e+04 1.0559922582274987e+03 -999 3.07909871e-01 3.279823655e-01 -1.22737514e-01
 66 4 430284 2.9921952855424985e+04 4.5928051512296435e+04 1.2794705271135042e-14 2.3250405977073708e+04 3.0365212657746135e+04 9.5263570972703064e+02 -999 3.08009221e-01 3.249110058e-01 -1.22766198e-01
 67 4 430284 2.5606406179251415e+04 4.3269397972324397e+04 1.2476791491539141e-14 2.0838857199801252e+04 2.5878498295805362e+04 8.7051498311377952e+02 -999 3.08124411e-01 3.210211835e-01 -1.22791955e-01
 68 4 430284 2.1866355052691157e+04 4.0406890782021015e+04 1.2086295219973398e-14 1.8309158797622429e+04 2.1931833816375783e+04 8.1557954733582199e+02 -999 3.08247360e-01 3.162466800e-01 -1.22811608e-01
 69 4 430284 1.9550964002001507e+04 3.7950223359936797e+04 1.1708854129297023e-14 1.6278908375416657e+04 1.9665660394546951e+04 8.0650657414018042e+02 -999 3.08348983e-01 3.114293623e-01 -1.22818765e-01
 70 4 430284 1.8062758647747611e+04 3.5945639386132112e+04 1.1399218789074877e-14 1.4784226428108037e+04 1.8388747936025036e+04 8.1185999729536115e+02 -999 3.08425284e-01 3.068549745e-01 -1.22816341e-01
 71 4 430284 1.6289371891253428e+04 3.3904244044853105e+04 1.1061802257012912e-14 1.3474252515079230e+04 1.6952144944708012e+04 8.4573729615521631e+02 -999 3.08433927e-01 3.016877408e-01 -1.22733920e-01
 72 4 430284 1.4727287102617052e+04 3.1608470017539174e+04 1.0683490406166857e-14 1.2290327764764792e+04 1.5793757795141397e+04 9.2616852604117014e+02 -999 3.08460350e-01 2.948353012e-01 -1.22613414e-01
 73 4 430284 1.4039147372455627e+04 2.9354745839889503e+04 1.0283845506695986e-14 1.1629482152482293e+04 1.5516430116364671e+04 1.1257821826142479e+03 -999 3.08542074e-01 2.863358955e-01 -1.22466740e-01
 74 4 430284 1.4206178889131363e+04 2.7607602164453059e+04 9.9612861561332402e-15 1.1580632940791244e+04 1.5998091082365583e+04 1.4665357388368682e+03 -999 3.08715773e-01 2.776307096e-01 -1.22350727e-01
 75 4 430284 1.4649538276512705e+04 2.6282367607596167e+04 9.7275545026275853e-15 1.1756592450741555e+04 1.6666958449388509e+04 1.9742244309322498e+03 -999 3.09001674e-01 2.689583720e-01 -1.22300928e-01
 76 4 430284 1.4306967030227952e+04 2.4228099890476973e+04 9.3999862489589298e-15 1.0896237763314701e+04 1.6515038030142063e+04 3.6145433936625036e+03 -999 3.09609773e-01 2.567929793e-01 -1.22369819e-01
 77 4 430284 1.4409012821193073e+04 2.2552010280132992e+04 9.2129027624227218e-15 1.0354841467625771e+04 1.6629094347888706e+04 1.0049796485848967e+04 -999 3.10767645e-01 2.396790006e-01 -1.22755183e-01
 78 4 430284 1.4647569449614679e+04 2.2372922097113100e+04 9.1336867891077164e-15 1.0271974767936801e+04 1.6662149333492060e+04 2.5218143005187208e+04 -999 3.12289287e-01 2.209390485e-01 -1.23710766e-01
 79 4 430284 1.4811747797097301e+04 2.3059885134950873e+04 8.9969254402643718e-15 1.0405817596324961e+04 1.6518499956072526e+04 5.1232268441229375e+04 -999 3.13618738e-01 2.023257303e-01 -1.25298571e-01
 80 4 430284 1.5256913971425422e+04 2.6131615815782159e+04 8.7123751658838972e-15 1.0662811390284867e+04 1.7482297797051691e+04 1.2112981911486103e+05 -999 3.14134188e-01 1.834026511e-01 -1.27469336e-01
 81 4 430284 1.2776385428391282e+04 1.8883545239401501e+04 8.0375582864482554e-15 9.7079238051015182e+03 1.3624310148949267e+04 2.0746898871820507e+05 -999 3.12807135e-01 1.577869581e-01 -1.30922796e-01
 82 4 430284 1.1123230174009681e+04 1.8435466360143040e+04 7.1888987100193460e-15 8.8839388797782904e+03 1.1962902455293908e+04 2.1911503439698095e+05 -999 3.08871393e-01 1.377697553e-01 -1.33250584e-01
 83 4 430284 1.0669926525358092e+04 2.7005989458827422e+04 6.5941700693500871e-15 8.3459946909439295e+03 1.2698615788533454e+04 1.3253862933199547e+05 -999 3.07368301e-01 1.337950881e-01 -1.33361049e-01
 84 4 430284 1.0500883989467437e+04 2.7752469854345949e+04 6.3922919588563166e-15 8.0762677843564607e+03 1.2998339010277357e+04 7.6160550693492580e+04 -999 3.06776320e-01 1.323650838e-01 -1.33353761e-01
 85 4 430284 1.0380722105388440e+04 2.6535230380480534e+04 6.2972909724830289e-15 7.9027692375008983e+03 1.2902855575950867e+04 3.8610462580811494e+04 -999 3.06330352e-01 1.313046276e-01 -1.33336974e-01
 86 4 430284 9.0829898296937845e+03 1.8324605521709578e+04 1.1492471661595801e-13 6.4804686623833795e+03 9.7184615878853147e+03 1.3740770719330333e+05 -999 3.02475876e-01 1.225853587e-01 -1.32852828e-01
 87 4 430284 8.1866373487715837e+03 1.5466709205692681e+04 1.6967365204218517e-13 5.6459278691810277e+03 8.3724921039281744e+03 8.2542557945750057e+04 -999 3.00100664e-01 1.161066191e-01 -1.32212877e-01
 88 4 430284 7.6951237867613872e+03 1.3982855175632501e+04 1.8695492208466786e-13 5.1373005719312487e+03 7.7338531461251805e+03 3.3248896955470969e+04 -999 2.99405704e-01 1.120054418e-01 -1.31778424e-01
 89 4 430284 7.3902936222699664e+03 1.3088143549122517e+04 1.9068951854063876e-13 4.8837529968006429e+03 7.3692898689413514e+03 1.6283308969017327e+04 -999 2.99554939e-01 1.095888349e-01 -1.31584000e-01
 90 4 430284 7.4971235307320967e+03 1.2178546820153671e+04 1.9008660301614720e-13 4.6918901649994523e+03 7.4265684241794252e+03 1.6652137297271584e+04 -999 3.00207231e-01 1.069259388e-01 -1.31455851e-01
 91 4 430284 6.0210068722832893e+03 9.8703366793011828e+03 1.0865755991140182e-12 4.0302098434509257e+03 5.9062478285956640e+03 4.2630771263658055e+04 -999 3.06590352e-01 1.012150794e-01 -1.32473971e-01
 92 4 430284 5.4436081455692165e+03 8.3101876899682920e+03 3.2445475085446131e-12 3.8399743836549851e+03 5.2697442668169233e+03 7.0528521390166745e+04 -999 3.23818358e-01 9.134810072e-02 -1.35766505e-01
 93 4 430284 5.5200020356375408e+03 8.9384708571692081e+03 3.3305414516227717e-12 3.5266976423860820e+03 5.3958689617691634e+03 4.3446583555240621e+04 -999 3.43870204e-01 8.583489017e-02 -1.40977048e-01
 94 4 430284 5.6776895554349931e+03 8.8985076839774720e+03 2.0879419782704912e-12 3.2854945237674829e+03 5.6997585276753025e+03 4.9519753862479833e+04 -999 3.63133733e-01 8.219427375e-02 -1.46670232e-01
 95 4 430284 5.3043098871560533e+03 8.0625621099391728e+03 1.1792006551961768e-12 2.8804546049741621e+03 5.4466891229300199e+03 3.1250318564469726e+04 -999 3.78857828e-01 7.998624295e-02 -1.51603019e-01
 96 4 430284 3.4873780316893585e+03 4.7679459805904326e+03 6.7105611400727287e-12 2.3915488880985986e+03 3.5472900272321876e+03 4.1503191881164188e+04 -999 4.08091792e-01 7.700350536e-02 -1.60830746e-01
 97 4 430284 2.9991540799685449e+03 3.6625504012077272e+03 7.7356527805380268e-12 2.0241911737306439e+03 2.9808509500721493e+03 4.8773168022903948e+04 -999 4.44360851e-01 7.379145128e-02 -1.71788917e-01
 98 4 430284 2.8374947033998624e+03 3.5022625346654822e+03 5.8839623615054688e-12 1.7000463241509028e+03 2.7167139719230786e+03 7.8860307608278919e+04 -999 4.82057491e-01 7.093512359e-02 -1.81979917e-01
 99 4 430284 2.8295197613499313e+03 3.5860035733708160e+03 5.7048548550670280e-12 1.4771985337327560e+03 2.6866701187277667e+03 8.5677054615058732e+04 -999 5.22536265e-01 6.856844535e-02 -1.91181317e-01
 100 4 430284 2.9841619798245165e+03 3.7130069522424869e+03 6.4046562295975916e-12 1.2748037057788792e+03 2.8623079386405502e+03 8.7447467151671459e+04 -999 5.65229581e-01 6.682771673e-02 -1.98835234e-01
 101 4 430284 2.7071647662300293e+03 3.0392507375959885e+03 1.1608659340246168e-11 1.1321448636436733e+03 2.6156293605493443e+03 6.7730295485328665e+04 -999 6.04692708e-01 6.595862805e-02 -2.04210501e-01
 102 4 430284 2.6282709068677241e+03 2.7659848470330430e+03 1.2819337389340782e-11 8.9131576414360245e+02 2.5360568046304934e+03 2.7142547395153091e+04 -999 6.38462784e-01 6.570809295e-02 -2.07228172e-01
 103 4 430284 2.5599896222067805e+03 2.5452542767334144e+03 1.0620283868438690e-11 7.4739710704668028e+02 2.4613104588693900e+03 1.7792611039892861e+04 -999 6.64230669e-01 6.594281220e-02 -2.08665427e-01
 104 4 430284 2.5077998195036394e+03 2.3916763144718766e+03 8.5145498956697542e-12 6.6954782949080027e+02 2.4104031027466008e+03 1.4713921670648482e+04 -999 6.83358469e-01 6.635733559e-02 -2.09258212e-01
 105 4 430284 2.5435848885111609e+03 2.2127937570660342e+03 5.3147652428394966e-12 5.9107172533718381e+02 2.4592481402150775e+03 1.5351058769564905e+04 -999 7.14358874e-01 6.732625461e-02 -2.09696954e-01
 106 4 430284 2.3584280311208222e+03 2.0946601395883058e+03 4.6108797475092781e-12 5.7397453705195881e+02 2.2701034260194156e+03 1.0995146105455042e+04 -999 7.35775517e-01 6.845410393e-02 -2.09510258e-01
 107 4 430284 2.2234087926354673e+03 1.9635962590774550e+03 5.8051573239293156e-12 5.6608712079849045e+02 2.1429312121740581e+03 9.9659462361799233e+03 -999 7.65194530e-01 7.008888772e-02 -2.08560188e-01
 108 4 430284 2.1175542434733047e+03 1.8283964580850225e+03 5.2175827082093948e-12 5.0480631396839215e+02 2.0449841998838956e+03 9.1058890115740778e+03 -999 8.01470669e-01 7.220972774e-02 -2.06205307e-01
 109 4 430284 2.0100096139339878e+03 1.7463709602089771e+03 4.3508045306987992e-12 4.5543525783922678e+02 1.9305109274620932e+03 8.1076728704453481e+03 -999 8.18901985e-01 7.327370155e-02 -2.04439507e-01
 110 4 430284 1.9118045749972573e+03 1.6727400197243855e+03 3.5470808762629161e-12 4.1421262984172893e+02 1.8305538506689084e+03 7.8592843803226579e+03 -999 8.36581565e-01 7.430881531e-02 -2.02361600e-01
 111 4 430284 1.7349888093069540e+03 1.5612817008579054e+03 2.9599907943471110e-12 4.2284131855370038e+02 1.6513275439432773e+03 7.7904831277269141e+03 -999 8.63276812e-01 7.566824868e-02 -1.98651982e-01
 112 4 430284 1.5930910003441079e+03 1.4578228224793488e+03 2.7191886947168531e-12 3.7715248756875008e+02 1.4999372777747419e+03 7.8683307756412187e+03 -999 8.86390762e-01 7.632103094e-02 -1.95121272e-01
 113 4 430284 1.4597285160436866e+03 1.3698000642203942e+03 2.5387328628608895e-12 3.6244495506509111e+02 1.3550353511642732e+03 8.3946967412529775e+03 -999 9.06919800e-01 7.618304961e-02 -1.92251224e-01
 114 4 430284 1.3870609087927387e+03 1.3118690331834252e+03 2.4965845671621318e-12 3.4616821329459697e+02 1.2719935269722935e+03 8.2602809567579807e+03 -999 9.18980566e-01 7.557139337e-02 -1.90908842e-01
 115 4 430284 1.3099336775922523e+03 1.2521806344624617e+03 2.4489198892710199e-12 3.3468315737073800e+02 1.1856907256822512e+03 8.3179993470694917e+03 -999 9.33542234e-01 7.442857349e-02 -1.89662764e-01
 116 4 430284 1.2606617738738960e+03 1.2158957067780407e+03 1.8741247407664841e-12 3.2915640730623727e+02 1.1326553183638380e+03 7.9857099546907184e+03 -999 9.41564706e-01 7.354420889e-02 -1.89357239e-01
 117 4 430284 1.2170544007159695e+03 1.1777647410538598e+03 2.0538259725307290e-12 3.2712977238601803e+02 1.0840705191250713e+03 8.1318820822859225e+03 -999 9.51301810e-01 7.239555150e-02 -1.89163122e-01
 118 4 430284 1.1834144050676312e+03 1.1472765097099759e+03 2.3190613076945386e-12 3.2735430600208070e+02 1.0457813749424524e+03 8.1142538205096844e+03 -999 9.61968665e-01 7.106859128e-02 -1.89105496e-01
 119 4 430284 1.1690850451539836e+03 1.1423721637049562e+03 2.4446251889712569e-12 3.2983530573745838e+02 1.0273541934083332e+03 8.0456908132958642e+03 -999 9.73510335e-01 6.961156971e-02 -1.89161393e-01
 120 4 430284 1.1542388701495445e+03 1.1349436669095444e+03 2.5017626199656830e-12 3.2913932273326458e+02 1.0109119812454790e+03 7.7433295582543160e+03 -999 9.79506817e-01 6.884628041e-02 -1.89178881e-01
 121 4 430284 1.1311791018573294e+03 1.1358572199321497e+03 2.0880053701833255e-12 3.3045287733734466e+02 9.8790065490343568e+02 7.8248489577672681e+03 -999 9.85626284e-01 6.809057292e-02 -1.89214410e-01
 122 4 430284 1.1154683282315452e+03 1.1339775584805814e+03 2.2753096292421733e-12 3.3255500326062582e+02 9.7122280254165344e+02 7.9817564283946967e+03 -999 9.94116269e-01 6.709903515e-02 -1.89278313e-01
 123 4 430284 1.1172650138275219e+03 1.1304654912045053e+03 2.6843340083041239e-12 3.2904029564775556e+02 9.7125202901636794e+02 8.1323204390462188e+03 -999 1.00391964e+00 6.607078774e-02 -1.89385461e-01
 124 4 430284 1.1255628217178396e+03 1.1290762315268948e+03 2.8383937534502953e-12 3.2427989290824826e+02 9.7887012760399455e+02 8.4021665120687776e+03 -999 1.01113913e+00 6.538272343e-02 -1.89415732e-01
 125 4 430284 1.1268023413568060e+03 1.1425504253092365e+03 2.9064872057587964e-12 3.2287263601871285e+02 9.8208247104040015e+02 8.8024984420615328e+03 -999 1.01627708e+00 6.493936241e-02 -1.89417149e-01
 126 4 430284 1.1077241739983999e+03 1.1443993293610527e+03 2.2400647029590576e-12 3.2278333596298086e+02 9.6412096801504640e+02 9.3717774760874890e+03 -999 1.02179710e+00 6.445980059e-02 -1.89313755e-01
 127 4 430284 1.1139766106259067e+03 1.1344790156252518e+03 2.1624366755937375e-12 3.2300010362801106e+02 9.6980421486836076e+02 9.9357616604146024e+03 -999 1.02852705e+00 6.394019421e-02 -1.89175994e-01
 128 4 430284 1.1286076797422913e+03 1.1119730562425686e+03 2.3886224529061417e-12 3.1990583493420922e+02 9.8634139167101659e+02 1.0481069613848163e+04 -999 1.03542395e+00 6.348415318e-02 -1.89012785e-01
 129 4 430284 1.1431490273818008e+03 1.1060202573244262e+03 2.5568468590663629e-12 3.1781626014490394e+02 1.0024263403323722e+03 1.1070071652381463e+04 -999 1.04170092e+00 6.313000921e-02 -1.88822548e-01
 130 4 430284 1.1677685855512682e+03 1.1232631538739865e+03 2.6348940348628321e-12 3.1767497515609136e+02 1.0257802257727587e+03 1.1744829280224363e+04 -999 1.04591490e+00 6.291937139e-02 -1.88643670e-01
 131 4 430284 1.1363944519294303e+03 1.1166705278855395e+03 2.2286992951412800e-12 3.1397743971056423e+02 9.9732910602462982e+02 1.2491205179890030e+04 -999 1.04886667e+00 6.275943827e-02 -1.88424832e-01
 132 4 430284 1.1186665272996079e+03 1.1056497504428198e+03 2.0222605443756147e-12 3.1315358207219765e+02 9.8204398985034084e+02 1.3169517759836681e+04 -999 1.05255630e+00 6.257865263e-02 -1.88142516e-01
 133 4 430284 1.1162769477559045e+03 1.0917424585523677e+03 2.0670060824270445e-12 3.1396881077395273e+02 9.8202558782575932e+02 1.3905391208753381e+04 -999 1.05690814e+00 6.239562269e-02 -1.87807699e-01
 134 4 430284 1.1467911057318663e+03 1.0885797894323473e+03 2.2271765991616862e-12 3.1457373627901825e+02 1.0126052323562541e+03 1.4522750996567614e+04 -999 1.06184684e+00 6.223145384e-02 -1.87441350e-01
 135 4 430284 1.1591126471123316e+03 1.0811211897806675e+03 2.3029781619914193e-12 3.1277417494968876e+02 1.0255712375596763e+03 1.5121719415647083e+04 -999 1.06441474e+00 6.216336482e-02 -1.87239802e-01
 136 4 430284 1.1222380555946327e+03 1.0794518403084185e+03 1.9101823049645457e-12 3.1282195323560956e+02 9.9114910145487647e+02 1.5744412984994715e+04 -999 1.06683715e+00 6.206339154e-02 -1.86920734e-01
 137 4 430284 1.1055100524640675e+03 1.0700734623792491e+03 1.7405716697878133e-12 3.1632307281806209e+02 9.7494496060568770e+02 1.6263637395203972e+04 -999 1.06997653e+00 6.194896267e-02 -1.86514424e-01
 138 4 430284 1.1191672629219313e+03 1.0529603891396396e+03 1.8562715697529319e-12 3.1902317338451320e+02 9.8838953252144086e+02 1.6704161199345843e+04 -999 1.07370880e+00 6.184196855e-02 -1.86072438e-01
 139 4 430284 1.1360104806396207e+03 1.0479574965770753e+03 1.9988148434825373e-12 3.1894186133257853e+02 1.0065954129192269e+03 1.7210842162171059e+04 -999 1.07682442e+00 6.176977358e-02 -1.85711545e-01
 140 4 430284 1.1519881863627650e+03 1.0562557723121972e+03 2.1014718289904548e-12 3.1806827760401143e+02 1.0223165876251456e+03 1.7568227899604623e+04 -999 1.07952504e+00 6.171397167e-02 -1.85391382e-01
 141 4 430284 1.1228037563712212e+03 1.0525559649971567e+03 1.7891784534140304e-12 3.2068947158385873e+02 9.9349436920164010e+02 1.7770072332902873e+04 -999 1.08115256e+00 6.166197283e-02 -1.85137502e-01