TITLE = "005.02 ALPHA 3.00 GRIDLEVEL 6"

VARIABLES = "ITERATION"  "GRID_LEVEL"  "GRID_SIZE"  "CONTINUITY"  "MOMENTUMX"  "MOMENTUMY"  "MOMENTUMZ"  "ENERGY"  "TURB1"  "TURB2"  "CL_TOT"  "CD_TOT"  "CM_TOT"

DATASETAUXDATA ParticipantID   = "005"
DATASETAUXDATA SubmissionDate  = "10-31-2024"
DATASETAUXDATA Name            = "Jeffrey A. Housman"
DATASETAUXDATA Email           = "jeffrey.a.housman@nasa.gov"
DATASETAUXDATA Institution     = "NASA Ames Research Center"
DATASETAUXDATA SolverName      = "LAVA Curvilinear"
DATASETAUXDATA BasicAlgorithm  = "RANS"
DATASETAUXDATA TurbulenceModel = "SA-RC-comp-neg"
DATASETAUXDATA GridId          = "Multiblock"
DATASETAUXDATA Discretization  = "Finite difference"
DATASETAUXDATA Order           = "2"
DATASETAUXDATA DistanceCalc    = "Exact"
DATASETAUXDATA Notes           = " "

ZONE T = "005.02 - Alpha 3.00 - Grid Level 6"
AUXDATA Tstatic         = "271.0"
AUXDATA Deltat          = "-999"
AUXDATA GridFileName    = "ONERA-OAT15A_230mmChord_780mmSpan_upZ_2024_06_25-Structured_23mm_Level-6.x"
AUXDATA Misc            = " "
 0 6 1281933 6.1779588955536368e+05 2.2284670202830932e+06 1.0839315234593015e-13 6.2396421413780889e+05 6.6753033713310969e+05 4.1582057822643518e+06 -999 1.76553938e-02 1.052619981e+00 -1.00022332e-02
 1 6 1281933 9.4434198882533750e+05 1.6273322600135352e+06 9.0821119745363511e-14 4.6136312322960375e+05 9.2158624785891466e+05 2.6947216031342987e+06 -999 4.80729348e-02 9.450426604e-01 -2.29858569e-02
 2 6 1281933 1.1619979291036506e+06 1.3655636420019327e+06 7.8080398993661399e-14 5.0484155955854460e+05 1.1165441073564268e+06 1.7536027610811035e+06 -999 8.63404792e-02 8.794567848e-01 -3.92833134e-02
 3 6 1281933 1.3478491934398653e+06 1.2062285421787770e+06 6.8502026046620682e-14 6.0432408099285897e+05 1.2941073490757737e+06 1.1475482823341689e+06 -999 1.22382018e-01 8.349011957e-01 -5.45708898e-02
 4 6 1281933 1.4998135519746076e+06 1.0983536450704224e+06 6.1129745012607628e-14 7.2471947010557947e+05 1.4559119357698457e+06 7.4550952642969345e+05 -999 1.54604804e-01 8.030349401e-01 -6.69104701e-02
 5 6 1281933 1.6630176101124331e+06 1.0959890833615193e+06 5.5370690118802046e-14 8.4862296558999293e+05 1.6592479449797182e+06 4.8050342698285769e+05 -999 1.78659667e-01 7.775234678e-01 -7.61092007e-02
 6 6 1281933 1.5038887820942260e+06 1.0995287332351413e+06 5.0942240499138790e-14 8.7951794688650733e+05 1.5037306953051644e+06 2.8715604835868679e+05 -999 1.95394892e-01 7.478693667e-01 -8.31822295e-02
 7 6 1281933 1.5304323804459341e+06 1.0939740854862516e+06 4.6814684812305416e-14 9.1245987631753087e+05 1.5304093953303825e+06 1.6135532227207217e+05 -999 2.09853140e-01 7.162083617e-01 -8.96815619e-02
 8 6 1281933 1.6141417900856913e+06 1.0472896407875544e+06 4.3769701471920660e-14 9.4024922535951622e+05 1.6315051890416993e+06 1.2572899515389832e+05 -999 2.20738366e-01 6.873609724e-01 -9.43571908e-02
 9 6 1281933 1.8457342724741849e+06 1.0945006089166936e+06 4.1487079608860944e-14 9.9694942277565098e+05 1.9323390018476511e+06 1.0763477005159247e+05 -999 2.29257172e-01 6.613726062e-01 -9.77858061e-02
 10 6 1281933 1.8679814275178004e+06 1.0247505616625804e+06 3.9837640132938473e-14 1.0151146038484669e+06 1.9418033747880191e+06 9.5824294260316368e+04 -999 2.35347464e-01 6.408461037e-01 -1.00210588e-01
 11 6 1281933 1.7366162338260114e+06 1.0412375670571562e+06 3.8328140119467664e-14 9.8485303142794955e+05 1.8074476189393164e+06 8.7133490368814208e+04 -999 2.40309931e-01 6.228237843e-01 -1.02241416e-01
 12 6 1281933 1.6045549117379624e+06 9.3448071244193183e+05 3.6647716249133408e-14 9.5600383724318200e+05 1.6278875390034474e+06 8.0614194603306401e+04 -999 2.45554597e-01 6.025171962e-01 -1.04297486e-01
 13 6 1281933 1.6430848022722197e+06 9.8337254625509062e+05 3.5337377380954723e-14 9.6419255872116750e+05 1.6812389910139276e+06 7.5293141773197247e+04 -999 2.49521725e-01 5.858613286e-01 -1.05841038e-01
 14 6 1281933 1.8993092961082633e+06 1.0785562377482837e+06 3.4209813979717139e-14 1.0277272121944132e+06 2.0064994327114040e+06 7.0961536379374636e+04 -999 2.52983462e-01 5.702688191e-01 -1.07262027e-01
 15 6 1281933 1.7611649200843063e+06 8.7702895979283564e+05 3.3509730231877199e-14 9.6325814637637872e+05 1.8314969917876821e+06 6.6745501533396338e+04 -999 2.54811388e-01 5.613108412e-01 -1.08065736e-01
 16 6 1281933 1.6295893754517313e+06 8.8863524942851171e+05 3.2593054013649423e-14 9.4173957567562012e+05 1.6772476441985008e+06 6.2648662247443361e+04 -999 2.56752220e-01 5.508523220e-01 -1.08915459e-01
 17 6 1281933 1.5122258652825481e+06 8.7388678799232899e+05 3.1678780502510104e-14 9.0604701205382065e+05 1.5347105836299262e+06 5.9429796871545790e+04 -999 2.58427899e-01 5.408437209e-01 -1.09591507e-01
 18 6 1281933 1.6621768370857209e+06 9.2978755740496598e+05 3.0799823571813595e-14 9.3663943901540362e+05 1.7202888040001206e+06 5.6871161791868806e+04 -999 2.60013813e-01 5.301878496e-01 -1.10159717e-01
 19 6 1281933 1.6254099238607390e+06 8.1230270040707651e+05 3.0218681205678726e-14 9.1918764669896069e+05 1.6662020682049666e+06 5.4444164207568618e+04 -999 2.60980316e-01 5.228981689e-01 -1.10452996e-01
 20 6 1281933 1.8013883056476591e+06 9.4477137291634525e+05 2.9713932763986479e-14 9.3366054993738839e+05 1.9092647640319422e+06 5.2217993814825095e+04 -999 2.61867414e-01 5.157418317e-01 -1.10703990e-01
 21 6 1281933 1.5242834042036473e+06 8.1631993276576616e+05 2.9114187963223732e-14 8.7222972429161891e+05 1.5888083735685460e+06 4.8838777524224737e+04 -999 2.62623779e-01 5.084824219e-01 -1.10906654e-01
 22 6 1281933 1.4190934530788737e+06 8.0654729922187258e+05 2.8555759938617023e-14 8.4222039178563189e+05 1.4428902142141936e+06 4.6317811811324413e+04 -999 2.63340640e-01 5.010462833e-01 -1.11100135e-01
 23 6 1281933 1.4754376874312754e+06 7.7358715415537660e+05 2.8094294945395850e-14 8.4549332503726683e+05 1.5050878155743375e+06 4.4358153069378997e+04 -999 2.64003609e-01 4.936050105e-01 -1.11287249e-01
 24 6 1281933 1.5250721252968772e+06 7.6613806970438303e+05 2.7752517119312040e-14 8.3277998033488006e+05 1.5850983627555105e+06 4.2525077000229343e+04 -999 2.64466953e-01 4.879461494e-01 -1.11424424e-01
 25 6 1281933 1.7361145281452860e+06 9.6485799951825663e+05 2.7475673418680144e-14 8.8556546571514779e+05 1.8607966968420637e+06 4.1061295910139248e+04 -999 2.64930231e-01 4.819621361e-01 -1.11565794e-01
 26 6 1281933 1.4680760294118577e+06 8.3768784058591165e+05 2.7031655780944122e-14 8.0778314647639357e+05 1.5616912660435231e+06 3.8318925267169121e+04 -999 2.65254061e-01 4.770108705e-01 -1.11662040e-01
 27 6 1281933 1.2999545530188365e+06 7.2137593164089986e+05 2.6591671988469131e-14 7.6180256804895552e+05 1.3339630583526313e+06 3.6348886420954906e+04 -999 2.65619209e-01 4.713223768e-01 -1.11770651e-01
 28 6 1281933 1.3069600103881489e+06 7.0480337024435331e+05 2.6240921845362858e-14 7.4895247474995570e+05 1.3316928922382013e+06 3.4805165912141281e+04 -999 2.65969781e-01 4.657423184e-01 -1.11872751e-01
 29 6 1281933 1.4083414878539064e+06 7.2778899047560792e+05 2.6029579594487371e-14 7.4833867293642042e+05 1.4779079935173322e+06 3.3428389950577126e+04 -999 2.66255276e-01 4.611433473e-01 -1.11953861e-01
 30 6 1281933 1.5746945377544099e+06 8.6696409921847214e+05 2.5862212294864783e-14 7.8482966111836245e+05 1.6884514321945661e+06 3.2266445147739632e+04 -999 2.66529831e-01 4.567044502e-01 -1.12031056e-01
 31 6 1281933 1.3245014939346944e+06 7.5630427214643895e+05 2.5477853429850311e-14 7.1582863477963756e+05 1.4157063270010366e+06 3.0135045323908656e+04 -999 2.66749656e-01 4.526383245e-01 -1.12089755e-01
 32 6 1281933 1.1527492927326972e+06 6.4523673398307653e+05 2.5076407358136350e-14 6.6839886795190186e+05 1.1904537879874592e+06 2.8647142312526175e+04 -999 2.66991293e-01 4.481512128e-01 -1.12155519e-01
 33 6 1281933 1.1735016330891962e+06 6.3709131652352528e+05 2.4724682130887884e-14 6.5554978802435845e+05 1.2019502874789848e+06 2.7472914305573850e+04 -999 2.67253547e-01 4.432558613e-01 -1.12228862e-01
 34 6 1281933 1.2464707325381681e+06 6.2531634397357039e+05 2.4528764564775495e-14 6.5598145471293840e+05 1.3008988637611319e+06 2.6398593433324477e+04 -999 2.67456043e-01 4.394512057e-01 -1.12287362e-01
 35 6 1281933 1.3773679905936413e+06 7.4207550227102137e+05 2.4433478051991546e-14 6.6822087402824988e+05 1.4844340047393087e+06 2.5405445839221233e+04 -999 2.67632951e-01 4.361058736e-01 -1.12339747e-01
 36 6 1281933 1.1663094977447668e+06 6.3193609910667839e+05 2.4176496806178331e-14 6.1812708702595229e+05 1.2495544344204902e+06 2.3741339185979774e+04 -999 2.67786575e-01 4.328150623e-01 -1.12384125e-01
 37 6 1281933 1.0013989279284069e+06 5.7017742420579819e+05 2.3896391361735678e-14 5.7370616376624932e+05 1.0370869457192951e+06 2.2567581857487308e+04 -999 2.67973558e-01 4.288579892e-01 -1.12439408e-01
 38 6 1281933 9.9181805162910011e+05 5.4983658822217491e+05 2.3722986437550020e-14 5.5351072571180202e+05 1.0121581163248850e+06 2.1627687482616540e+04 -999 2.68161356e-01 4.249381675e-01 -1.12496241e-01
 39 6 1281933 1.1018151269909777e+06 5.8320335478458274e+05 2.3688848602231252e-14 5.5732804833973665e+05 1.1565488501775253e+06 2.0788123946718406e+04 -999 2.68326848e-01 4.215319834e-01 -1.12547208e-01
 40 6 1281933 1.2257738276348514e+06 6.5762537997655070e+05 2.3750752954703058e-14 5.7724280405011890e+05 1.3141033779668757e+06 2.0024944877231341e+04 -999 2.68475937e-01 4.184985140e-01 -1.12593632e-01
 41 6 1281933 1.0356495974032939e+06 5.7912664849370159e+05 2.3491445121276198e-14 5.2882288992436184e+05 1.1157436944625415e+06 1.8705807273298338e+04 -999 2.68598494e-01 4.157471377e-01 -1.12630280e-01
 42 6 1281933 8.6522980626951135e+05 4.9002097228435794e+05 2.3178270797854990e-14 4.8493632500736573e+05 9.0274542828820692e+05 1.7774949950726190e+04 -999 2.68750546e-01 4.124150392e-01 -1.12676227e-01
 43 6 1281933 8.3781760259199713e+05 4.6630788615997077e+05 2.2912065427202033e-14 4.6273286440294964e+05 8.5111567836181121e+05 1.7027977759562877e+04 -999 2.68911905e-01 4.089720937e-01 -1.12725507e-01
 44 6 1281933 9.2147532560338185e+05 4.8774453986492299e+05 2.2786979462818039e-14 4.6221503816436621e+05 9.6028801121281250e+05 1.6363350662029439e+04 -999 2.69054091e-01 4.060105067e-01 -1.12769318e-01
 45 6 1281933 1.0375904783635114e+06 5.7031557005345868e+05 2.2762255143225993e-14 4.7456711408844707e+05 1.1151067810463910e+06 1.5746254057306480e+04 -999 2.69179736e-01 4.034392048e-01 -1.12808285e-01
 46 6 1281933 8.7530512143464631e+05 4.7984349636172375e+05 2.2536041992281965e-14 4.3585438161800645e+05 9.4473351963576989e+05 1.4701248165166800e+04 -999 2.69289117e-01 4.010058812e-01 -1.12840850e-01
 47 6 1281933 7.2723908013941918e+05 4.1312688794957317e+05 2.2269229344174531e-14 3.9959443741683988e+05 7.6377349100089248e+05 1.3930512637483940e+04 -999 2.69419846e-01 3.981698216e-01 -1.12880212e-01
 48 6 1281933 6.8305101114829083e+05 3.8180568367681623e+05 2.2039710873739097e-14 3.7625645832838479e+05 6.9129165914456686e+05 1.3294255035497321e+04 -999 2.69564206e-01 3.951185386e-01 -1.12924181e-01
 49 6 1281933 7.4450212294684001e+05 3.9273910173768504e+05 2.1927148309858881e-14 3.7196859265361470e+05 7.6670822443649685e+05 1.2733732633161650e+04 -999 2.69698468e-01 3.923489214e-01 -1.12965505e-01
 50 6 1281933 8.3020009838637454e+05 4.3447731909785850e+05 2.1931293307276057e-14 3.7805479745441739e+05 8.7932387441260298e+05 1.2217853689888929e+04 -999 2.69816780e-01 3.899536657e-01 -1.13002236e-01
 51 6 1281933 7.0891472878999484e+05 3.7856561800746561e+05 2.1740330928685173e-14 3.4825837080669880e+05 7.5982778122696618e+05 1.1388574464581416e+04 -999 2.69919867e-01 3.877093279e-01 -1.13033160e-01
 52 6 1281933 5.8721987412318785e+05 3.3162318819983973e+05 2.1516890693029818e-14 3.1813351076456340e+05 6.1831521867147600e+05 1.0743910570408436e+04 -999 2.70042978e-01 3.850938316e-01 -1.13070526e-01
 53 6 1281933 5.4246674476299225e+05 3.0423307004104037e+05 2.1319744027676317e-14 2.9645524811134540e+05 5.4980201246192667e+05 1.0193688810483378e+04 -999 2.70181523e-01 3.822259433e-01 -1.13113072e-01
 54 6 1281933 5.8215351386794995e+05 3.0906909816873044e+05 2.1237149886380905e-14 2.8960793376837554e+05 5.9555279548174760e+05 9.7046658836770257e+03 -999 2.70312558e-01 3.795823268e-01 -1.13153760e-01
 55 6 1281933 6.3920168995649798e+05 3.3426873734342511e+05 2.1264508046168168e-14 2.9055470564569772e+05 6.7207038916718704e+05 9.2628565448043501e+03 -999 2.70428439e-01 3.772928165e-01 -1.13190113e-01
 56 6 1281933 5.5000570689622627e+05 2.9314895073213073e+05 2.1072420495300088e-14 2.6858541006309987e+05 5.8626332644485508e+05 8.6287919673768192e+03 -999 2.70529480e-01 3.751752776e-01 -1.13221125e-01
 57 6 1281933 4.5585548839870607e+05 2.5812278595060972e+05 2.0835911051922724e-14 2.4529654969912037e+05 4.8101794916495780e+05 8.1021011244469473e+03 -999 2.70651567e-01 3.726796997e-01 -1.13259135e-01
 58 6 1281933 4.1367552864554682e+05 2.3482028753287854e+05 2.0618537815117102e-14 2.2510522138511165e+05 4.2154910150497267e+05 7.6342228410107073e+03 -999 2.70794653e-01 3.698763113e-01 -1.13303914e-01
 59 6 1281933 4.3452706023412797e+05 2.3323077520951888e+05 2.0521244438822818e-14 2.1593860857262727e+05 4.4335691985565954e+05 7.2249652524467338e+03 -999 2.70933676e-01 3.672168186e-01 -1.13348195e-01
 60 6 1281933 4.6842858087864687e+05 2.4884494968793896e+05 2.0546061203612239e-14 2.1302307971845797e+05 4.8957283646881470e+05 6.8370747016847654e+03 -999 2.71056168e-01 3.649182029e-01 -1.13387986e-01
 61 6 1281933 4.0413243091687548e+05 2.1897318223080237e+05 2.0355753496979971e-14 1.9649989537813628e+05 4.2860158977907686e+05 6.3433111959317621e+03 -999 2.71161754e-01 3.628432116e-01 -1.13422285e-01
 62 6 1281933 3.3459433436370030e+05 1.9326770227147819e+05 2.0114624591589086e-14 1.7835616779978224e+05 3.5375211285525945e+05 5.9176312692717520e+03 -999 2.71288786e-01 3.603887166e-01 -1.13464175e-01
 63 6 1281933 2.9845742463163123e+05 1.7532344555511192e+05 1.9881199011612012e-14 1.6253570460124739e+05 3.0657507405786286e+05 5.5317185707418885e+03 -999 2.71435907e-01 3.575975110e-01 -1.13513473e-01
 64 6 1281933 3.0435308266846085e+05 1.7070173345278154e+05 1.9754934038544835e-14 1.5369865961113738e+05 3.1086306704618677e+05 5.1948552792539576e+03 -999 2.71578582e-01 3.549380381e-01 -1.13562206e-01
 65 6 1281933 3.1883193985857605e+05 1.7373143925702418e+05 1.9742959676775755e-14 1.4895101687572250e+05 3.3048707397502608e+05 4.9019283808694572e+03 -999 2.71707125e-01 3.525713977e-01 -1.13607167e-01
 66 6 1281933 2.7692996173538326e+05 1.5721728832720013e+05 1.9565332325847886e-14 1.3790197167557312e+05 2.9160779432006291e+05 4.4994175517188023e+03 -999 2.71812182e-01 3.505261894e-01 -1.13643857e-01
 67 6 1281933 2.2922584713870587e+05 1.4137458179003108e+05 1.9338059385637170e-14 1.2518383965265439e+05 2.4198371358980247e+05 4.1660080860847074e+03 -999 2.71939766e-01 3.480667605e-01 -1.13688798e-01
 68 6 1281933 1.9999308238697654e+05 1.2879472544626499e+05 1.9099526216530851e-14 1.1312713950656919e+05 2.0659009490116077e+05 3.8554200503239376e+03 -999 2.72089007e-01 3.452210953e-01 -1.13741901e-01
 69 6 1281933 1.9691867899142869e+05 1.2310477569924314e+05 1.8956195876182963e-14 1.0518249658507465e+05 2.0166145596958711e+05 3.6024904104252473e+03 -999 2.72234480e-01 3.424754726e-01 -1.13794543e-01
 70 6 1281933 1.9918467891636593e+05 1.2073641012862223e+05 1.8943531615707449e-14 9.9868300048813195e+04 2.0541990269439429e+05 3.3697372178551477e+03 -999 2.72365930e-01 3.400084310e-01 -1.13843499e-01
 71 6 1281933 1.7369845855019192e+05 1.1155286550631380e+05 1.8762728097659972e-14 9.2766043659606425e+04 1.8180012548786323e+05 3.0787129529027188e+03 -999 2.72469301e-01 3.379253795e-01 -1.13881198e-01
 72 6 1281933 1.4379494426046088e+05 1.0222474984316500e+05 1.8534413442446600e-14 8.4373306703714785e+04 1.5121234660162029e+05 2.8264277747481187e+03 -999 2.72595163e-01 3.354039241e-01 -1.13927325e-01
 73 6 1281933 1.2257131107400809e+05 9.3988014243261292e+04 1.8278685019415018e-14 7.5781469850384237e+04 1.2686925419741051e+05 2.6060063054663970e+03 -999 2.72744222e-01 3.324389354e-01 -1.13982418e-01
 74 6 1281933 1.1566222795830679e+05 8.8777714684612845e+04 1.8108840797392971e-14 6.9271780560752799e+04 1.1861004539542647e+05 2.4197036789875078e+03 -999 2.72890304e-01 3.295514416e-01 -1.14037598e-01
 75 6 1281933 1.1210748874242062e+05 8.5025621969938991e+04 1.8053630799245599e-14 6.4344501729750977e+04 1.1509437122605758e+05 2.2611400954607543e+03 -999 2.73022240e-01 3.269471468e-01 -1.14089606e-01
 76 6 1281933 9.8015435237577170e+04 7.9762683433624145e+04 1.7883533621742032e-14 5.8852475686209087e+04 1.0183546813339605e+05 2.0606942480661360e+03 -999 2.73121990e-01 3.247453726e-01 -1.14126406e-01
 77 6 1281933 8.1150474073193880e+04 7.4080824486514597e+04 1.7662099721110724e-14 5.2441858433512098e+04 8.4663272484083267e+04 1.8796589118207139e+03 -999 2.73243694e-01 3.220516688e-01 -1.14171341e-01
 78 6 1281933 6.7474704512654149e+04 6.8470759670125888e+04 1.7397008812692563e-14 4.5637956729958183e+04 6.9551322630857481e+04 1.7515467782879734e+03 -999 2.73389408e-01 3.188149910e-01 -1.14225511e-01
 79 6 1281933 6.0513332757031079e+04 6.4156395630002589e+04 1.7167748000965994e-14 4.0178149563070168e+04 6.1799995412335440e+04 1.6501103111199093e+03 -999 2.73531682e-01 3.156266124e-01 -1.14279967e-01
 80 6 1281933 5.5719582256448586e+04 6.0701283440371393e+04 1.7048428205085477e-14 3.5984428158270319e+04 5.6707510034567873e+04 1.5738020733612491e+03 -999 2.73659819e-01 3.127014697e-01 -1.14332158e-01
 81 6 1281933 4.8453311147563159e+04 5.7266617256285186e+04 1.6882188615319124e-14 3.2672472473904159e+04 4.9698605784453757e+04 1.4867050035958994e+03 -999 2.73743140e-01 3.100772748e-01 -1.14358074e-01
 82 6 1281933 3.9857468855995961e+04 5.3434397757413477e+04 1.6648045932735278e-14 2.8858555216793815e+04 4.0960727619180776e+04 1.4790545664190017e+03 -999 2.73841521e-01 3.067869127e-01 -1.14386250e-01
 83 6 1281933 3.2423166836332046e+04 4.9477321263094462e+04 1.6350766065445345e-14 2.4893932087238951e+04 3.3057601911433063e+04 1.6259987980210872e+03 -999 2.73953988e-01 3.027209484e-01 -1.14414936e-01
 84 6 1281933 2.8071896485127407e+04 4.6299850170968464e+04 1.6079743671917257e-14 2.1849849733081926e+04 2.8513528640338780e+04 1.9425474175472398e+03 -999 2.74055569e-01 2.986267034e-01 -1.14437822e-01
 85 6 1281933 2.5306899461831039e+04 4.3838213575261958e+04 1.5866985017084726e-14 1.9744008193254420e+04 2.5751593356337486e+04 2.3680214984068011e+03 -999 2.74139898e-01 2.947448105e-01 -1.14455851e-01
 86 6 1281933 2.2108898014928367e+04 4.1315465544503175e+04 1.5649764250945218e-14 1.7970151124212436e+04 2.2830140201068527e+04 2.8827392259812304e+03 -999 2.74173542e-01 2.905741957e-01 -1.14414850e-01
 87 6 1281933 1.8880003879964352e+04 3.8500930545512820e+04 1.5382841645503424e-14 1.6167390494656367e+04 1.9919659568415595e+04 3.6187089767250745e+03 -999 2.74232416e-01 2.850858733e-01 -1.14355793e-01
 88 6 1281933 1.6856557062478532e+04 3.5795851818067131e+04 1.5028705475555882e-14 1.4707291594386439e+04 1.8324726614927586e+04 6.7037158653404740e+03 -999 2.74352173e-01 2.781643598e-01 -1.14285414e-01
 89 6 1281933 1.6334525397420455e+04 3.3939693637936456e+04 1.4714031651298127e-14 1.3945230908210062e+04 1.8254561705054490e+04 1.2950905946320043e+04 -999 2.74537702e-01 2.710502996e-01 -1.14226823e-01
 90 6 1281933 1.6475724073880530e+04 3.2845370621975031e+04 1.4501831135066946e-14 1.3663364038009222e+04 1.8760494917393771e+04 2.0192179559855987e+04 -999 2.74807769e-01 2.639517603e-01 -1.14215533e-01
 91 6 1281933 1.5760866856358563e+04 3.0381158553920599e+04 1.6076924119143686e-14 1.2895369430675020e+04 1.8252735447670388e+04 6.1666560667320140e+04 -999 2.75355291e-01 2.539916504e-01 -1.14358195e-01
 92 6 1281933 1.5998354500486139e+04 2.8944279127300852e+04 2.4129861674738566e-14 1.2520292893432186e+04 1.8663877435210001e+04 1.7275417906354697e+05 -999 2.76293871e-01 2.395140132e-01 -1.14803479e-01
 93 6 1281933 1.6845751229048139e+04 3.2473983379686739e+04 3.8312358376023817e-14 1.2392085922083021e+04 2.0155707394788333e+04 2.4992700554979761e+05 -999 2.77577900e-01 2.213116120e-01 -1.15851866e-01
 94 6 1281933 1.7062732942652798e+04 3.8373238737188993e+04 4.4949128970025961e-14 1.2397454855148091e+04 2.4112264266533362e+04 2.4148500014381757e+05 -999 2.78014373e-01 2.134740137e-01 -1.16543988e-01
 95 6 1281933 1.7122301103292459e+04 3.8354362955871053e+04 4.8883692288500229e-14 1.2664489007974176e+04 2.7496575351264026e+04 3.8282403332551039e+05 -999 2.78197409e-01 2.088209048e-01 -1.17000275e-01
 96 6 1281933 1.6720146258032764e+04 2.2546310077351925e+04 1.2282030508415014e-13 1.1956147676602770e+04 1.8614769491726776e+04 3.8084556299326319e+05 -999 2.79304706e-01 1.856033997e-01 -1.19297217e-01
 97 6 1281933 1.6202980881374589e+04 2.0645372603795509e+04 1.8937463516945715e-13 1.1385276032844578e+04 1.7552684150528446e+04 4.6708719357728440e+05 -999 2.79192046e-01 1.644138575e-01 -1.21857728e-01
 98 6 1281933 1.5714468050557076e+04 3.1168316006352881e+04 2.1873328732421531e-13 1.1170246551844186e+04 1.7781889697222967e+04 3.8703882354357996e+05 -999 2.77238197e-01 1.458962203e-01 -1.24067190e-01
 99 6 1281933 1.5542837015229576e+04 3.5806917475440569e+04 2.1730452237749105e-13 1.0905646304937103e+04 1.7689764192192644e+04 2.2531311751964578e+05 -999 2.76735926e-01 1.439933705e-01 -1.24216158e-01
 100 6 1281933 1.5457359391864586e+04 3.6494094376396017e+04 2.1643149921681208e-13 1.0763422024508476e+04 1.7227665566452437e+04 2.8940381034529716e+05 -999 2.76433096e-01 1.429589352e-01 -1.24286829e-01
 101 6 1281933 1.3976807457150195e+04 2.3028058874118484e+04 4.0824378620267899e-13 9.1893176954115388e+03 1.4470631382736519e+04 3.3319504213563720e+05 -999 2.70990435e-01 1.261982179e-01 -1.25029149e-01
 102 6 1281933 1.2920010751278873e+04 2.1337452699131511e+04 3.9622909633101404e-13 8.1056557180215423e+03 1.3267480796757422e+04 1.3210247523525881e+05 -999 2.66958113e-01 1.178324209e-01 -1.24616286e-01
 103 6 1281933 1.2367704114301410e+04 1.9719366966985890e+04 3.7429032741529499e-13 7.3644601450449290e+03 1.2601767633202566e+04 8.6279385971370299e+04 -999 2.65001278e-01 1.134487968e-01 -1.24227714e-01
 104 6 1281933 1.2317161621744573e+04 1.9068387099801574e+04 3.7831854479146645e-13 6.8246135909764835e+03 1.2421325086959225e+04 3.9600718131236004e+04 -999 2.63725248e-01 1.099223146e-01 -1.23897354e-01
 105 6 1281933 1.2016236064296774e+04 2.2186532219595316e+04 3.8983462843253081e-13 6.5812577209005149e+03 1.2718208605123320e+04 2.0858819624475313e+04 -999 2.63294879e-01 1.081016490e-01 -1.23752175e-01
 106 6 1281933 1.0570706191794050e+04 1.7209401792512675e+04 6.0768335842921672e-13 5.8381638347386497e+03 1.0777940073572834e+04 1.6977249229233508e+04 -999 2.64739595e-01 1.032474635e-01 -1.23980281e-01
 107 6 1281933 9.3115831208624113e+03 1.3125019377347066e+04 1.2017748402544735e-12 5.5322551310434901e+03 9.1040054807919169e+03 2.0199287434504276e+04 -999 2.70416508e-01 9.655443533e-02 -1.25387001e-01
 108 6 1281933 9.2697475859513906e+03 1.2874030519245853e+04 1.6093262948270332e-12 5.7230046230975104e+03 8.9081254991835158e+03 3.6054547696865724e+04 -999 2.82434841e-01 9.092708617e-02 -1.28945149e-01
 109 6 1281933 9.2709490005930147e+03 1.2888119115433616e+04 1.6667674112142920e-12 5.6034678515141168e+03 8.9649387623026469e+03 2.8648926422385321e+04 -999 2.90364391e-01 8.898754819e-02 -1.31516037e-01
 110 6 1281933 8.9366331074514474e+03 1.2879362153044762e+04 1.6826964247088555e-12 5.4439294097961101e+03 8.7158331756361149e+03 2.7336200429957113e+04 -999 2.98515046e-01 8.737228742e-02 -1.34232477e-01
 111 6 1281933 6.5914536855399547e+03 8.9032113724529263e+03 3.0994312804424459e-12 4.2730503026169990e+03 6.2451340851012583e+03 4.4637853635930529e+04 -999 3.27352470e-01 8.345417454e-02 -1.43912068e-01
 112 6 1281933 5.5021230313590368e+03 6.7965483053303560e+03 3.8481848651453481e-12 3.4183309506980031e+03 5.3111333753633453e+03 2.8877746491908536e+04 -999 3.66584629e-01 7.933217711e-02 -1.57162932e-01
 113 6 1281933 4.8483600328794273e+03 5.7434279268740402e+03 3.1963834196213620e-12 2.9222376317651115e+03 4.6504379152801457e+03 1.0265289376904072e+05 -999 4.15706286e-01 7.486084357e-02 -1.73036967e-01
 114 6 1281933 4.6188470964117414e+03 5.3300617161190612e+03 2.3355487504800852e-12 2.4238716776787846e+03 4.4203129943411450e+03 6.6281178638432189e+04 -999 4.65180610e-01 7.053003157e-02 -1.86980154e-01
 115 6 1281933 4.4900596656436819e+03 5.3914324984748682e+03 1.9933118741910654e-12 1.9066652390191261e+03 4.5124745574662566e+03 5.1872701732674032e+04 -999 5.10619855e-01 6.675049146e-02 -1.97164469e-01
 116 6 1281933 3.4050489601193376e+03 3.9969210326499683e+03 8.0309678585930511e-12 1.2361744918327340e+03 3.2934407000156125e+03 3.2810687385999117e+04 -999 5.71296302e-01 6.427141860e-02 -2.04118658e-01
 117 6 1281933 3.0090762048290276e+03 3.4318889000727436e+03 1.4056742294271060e-11 9.4706598418024282e+02 2.8636628110571214e+03 2.6394051725219975e+04 -999 6.18592647e-01 6.322963907e-02 -2.07301176e-01
 118 6 1281933 2.8300034651184251e+03 3.1678729890640848e+03 2.2034743739506390e-11 8.3408990555150990e+02 2.6713711659550609e+03 1.5430821052406067e+04 -999 6.46142397e-01 6.283547511e-02 -2.07942543e-01
 119 6 1281933 2.7379705666565410e+03 3.0330529077752562e+03 2.0880295972260197e-11 7.7986393341121902e+02 2.5719671485179683e+03 8.1215489967046278e+03 -999 6.62627926e-01 6.267818107e-02 -2.07916040e-01
 120 6 1281933 2.6945755265639627e+03 2.9541299642453291e+03 1.5559997350821296e-11 7.4416009944496557e+02 2.5219266133671490e+03 6.3083442057050443e+03 -999 6.73996314e-01 6.260141643e-02 -2.07734560e-01
 121 6 1281933 2.4785384484159081e+03 2.8420422667371990e+03 1.4738317492651344e-11 7.2459972682043758e+02 2.3047095467208587e+03 6.1836980821166790e+03 -999 6.99919256e-01 6.301648373e-02 -2.07761667e-01
 122 6 1281933 2.3554335113792781e+03 2.8379891957044097e+03 1.3549033169779317e-11 8.3019739287552477e+02 2.1840290453984494e+03 5.9366029916606149e+03 -999 7.23863255e-01 6.330470770e-02 -2.07322504e-01
 123 6 1281933 2.2920338925663323e+03 2.8515233914764699e+03 1.1083020246664102e-11 9.6670557186212693e+02 2.1186814529136923e+03 6.2581879386886940e+03 -999 7.52892080e-01 6.363326784e-02 -2.06284398e-01
 124 6 1281933 2.2617813858799591e+03 2.8676074593248136e+03 1.0603665627327700e-11 1.0125852315081837e+03 2.0901616897614945e+03 5.5342218622181272e+03 -999 7.66280806e-01 6.374770479e-02 -2.05478507e-01
 125 6 1281933 2.2571489656492231e+03 2.8470745880132949e+03 9.9510107554781382e-12 1.0189127181359826e+03 2.0803497450811224e+03 5.9049369203353099e+03 -999 7.80451865e-01 6.384791838e-02 -2.04475489e-01
 126 6 1281933 2.1809702070501939e+03 3.0274477718452235e+03 9.0721307620796736e-12 1.1284157248833064e+03 2.0154142447316831e+03 5.7856982033237573e+03 -999 7.94277025e-01 6.407560658e-02 -2.04091274e-01
 127 6 1281933 2.1158087213991485e+03 3.2266393411935169e+03 8.5239782731990533e-12 1.2753746282043483e+03 1.9572131150872781e+03 6.5928564744919377e+03 -999 8.10552028e-01 6.432429990e-02 -2.03364935e-01
 128 6 1281933 2.0580530610172755e+03 3.3936388997710519e+03 8.3075675378344654e-12 1.3691665082741038e+03 1.9028219314816752e+03 7.3486658059356932e+03 -999 8.28935469e-01 6.452269732e-02 -2.02415090e-01
 129 6 1281933 2.0441619396027759e+03 3.5008602489132481e+03 8.2510674816416566e-12 1.3837645620698208e+03 1.8770394935190764e+03 7.9669071642865802e+03 -999 8.47557440e-01 6.460206999e-02 -2.01258032e-01
 130 6 1281933 2.0434178090928895e+03 3.6135559992533517e+03 8.2885158876903351e-12 1.3832708937998254e+03 1.8688018051095714e+03 7.0045174092038005e+03 -999 8.57460509e-01 6.455207678e-02 -2.00540355e-01
 131 6 1281933 1.9651861916046726e+03 3.3790484110452803e+03 7.1822389013016960e-12 1.2643813454625129e+03 1.7915487161529745e+03 6.1157341305652290e+03 -999 8.62819724e-01 6.452557299e-02 -1.99967442e-01
 132 6 1281933 1.9099329348747044e+03 3.0825866692254476e+03 6.0271512533179339e-12 1.1370444170963090e+03 1.7351420230358360e+03 6.6684287788257379e+03 -999 8.69523649e-01 6.448044004e-02 -1.99145142e-01
 133 6 1281933 1.8722497570892831e+03 2.8031714550672818e+03 5.0791761306597179e-12 1.0117891746532279e+03 1.6956368598516428e+03 6.9799715388731101e+03 -999 8.76731523e-01 6.441282499e-02 -1.98193994e-01
 134 6 1281933 1.8672887683779772e+03 2.6299652127676236e+03 4.4687818331645729e-12 9.1001536108006940e+02 1.6847451548407887e+03 7.0317929818088542e+03 -999 8.83384740e-01 6.432922032e-02 -1.97335046e-01
 135 6 1281933 1.8905456037000142e+03 2.5550563616185223e+03 4.1787352315454532e-12 8.5422889955177936e+02 1.6980662136154272e+03 6.6224417284997744e+03 -999 8.88119542e-01 6.425481508e-02 -1.96741144e-01
 136 6 1281933 1.8518364391851699e+03 2.5355444306200566e+03 3.7505428878438676e-12 8.1537725962820616e+02 1.6545629255424665e+03 6.5637184869908524e+03 -999 8.91839670e-01 6.418832629e-02 -1.96361639e-01
 137 6 1281933 1.8217876877998979e+03 2.4864060876672957e+03 3.3300424877529788e-12 8.0825055839702270e+02 1.6240717385958455e+03 7.1472660612549262e+03 -999 8.96549248e-01 6.408726230e-02 -1.95759706e-01
 138 6 1281933 1.7877011896416516e+03 2.4187808735383205e+03 3.0292934338893387e-12 8.2513694048912180e+02 1.5944779477720131e+03 7.8026079326802083e+03 -999 9.02311013e-01 6.395294300e-02 -1.94909352e-01
 139 6 1281933 1.7998851699853328e+03 2.3436759169304969e+03 2.9781214849547914e-12 8.5032947099710270e+02 1.5998807212920442e+03 8.4392245594851320e+03 -999 9.08862977e-01 6.378725047e-02 -1.93947668e-01
 140 6 1281933 1.8040302594179016e+03 2.3210031145082398e+03 3.0749459222796946e-12 8.6882974150217512e+02 1.6011755894414232e+03 7.7083441245429567e+03 -999 9.12867256e-01 6.367654339e-02 -1.93405335e-01