TITLE = "005.02 ALPHA 3.90 GRIDLEVEL 3"

VARIABLES = "ITERATION"  "GRID_LEVEL"  "GRID_SIZE"  "CONTINUITY"  "MOMENTUMX"  "MOMENTUMY"  "MOMENTUMZ"  "ENERGY"  "TURB1"  "TURB2"  "CL_TOT"  "CD_TOT"  "CM_TOT"

DATASETAUXDATA ParticipantID   = "005"
DATASETAUXDATA SubmissionDate  = "10-31-2024"
DATASETAUXDATA Name            = "Jeffrey A. Housman"
DATASETAUXDATA Email           = "jeffrey.a.housman@nasa.gov"
DATASETAUXDATA Institution     = "NASA Ames Research Center"
DATASETAUXDATA SolverName      = "LAVA Curvilinear"
DATASETAUXDATA BasicAlgorithm  = "RANS"
DATASETAUXDATA TurbulenceModel = "SA-RC-comp-neg"
DATASETAUXDATA GridId          = "Multiblock"
DATASETAUXDATA Discretization  = "Finite difference"
DATASETAUXDATA Order           = "2"
DATASETAUXDATA DistanceCalc    = "Exact"
DATASETAUXDATA Notes           = " "

ZONE T = "005.02 - Alpha 3.90 - Grid Level 3"
AUXDATA Tstatic         = "271.0"
AUXDATA Deltat          = "-999"
AUXDATA GridFileName    = "ONERA-OAT15A_230mmChord_780mmSpan_upZ_2024_06_25-Structured_23mm_Level-3.x"
AUXDATA Misc            = " "
 0 3 234820 2.7585820941940276e+05 6.5777875365289557e+05 4.4403506898095780e-14 2.5813604521974784e+05 2.8494509706685209e+05 1.0423804486499218e+06 -999 1.30078824e-02 6.043385689e-01 -9.02899397e-03
 1 3 234820 3.8682268485665770e+05 5.1461531549997587e+05 3.9166251526884394e-14 2.0637649444122429e+05 3.7640173469640786e+05 6.7429396796586411e+05 -999 5.85285831e-02 5.794920843e-01 -2.66802425e-02
 2 3 234820 4.6467609801619564e+05 4.5346454648925876e+05 3.5245051573310774e-14 2.2915718700010105e+05 4.4580490213279601e+05 4.3658803314627433e+05 -999 1.10091430e-01 5.718855454e-01 -4.59843457e-02
 3 3 234820 5.4342717286325572e+05 4.1398722413062159e+05 3.2214756144551766e-14 2.6701614234880160e+05 5.2013829353488469e+05 2.8203059948639863e+05 -999 1.55258717e-01 5.712127834e-01 -6.37453024e-02
 4 3 234820 6.1954416762922809e+05 3.8224105285523296e+05 2.9835654125763483e-14 3.1217928253077302e+05 5.9779297910961718e+05 1.7887581775753357e+05 -999 1.94204736e-01 5.748542140e-01 -7.76927672e-02
 5 3 234820 6.9375034878754651e+05 3.8475377434154303e+05 2.7984480723915763e-14 3.6246150391401839e+05 6.8046247268458421e+05 9.6647053711662782e+04 -999 2.25182917e-01 5.797689913e-01 -8.82080123e-02
 6 3 234820 6.3980173512785148e+05 4.2772219731787057e+05 2.6592869810968768e-14 3.8445513564908825e+05 6.2983891776609805e+05 6.7761676087783082e+04 -999 2.46686822e-01 5.777179168e-01 -9.61115042e-02
 7 3 234820 6.5442040315952373e+05 4.4739689086531743e+05 2.5324976470685752e-14 3.9992243479464122e+05 6.4009898249608825e+05 5.3938117885498774e+04 -999 2.63750910e-01 5.714237502e-01 -1.02911089e-01
 8 3 234820 7.1014915788272489e+05 4.4696511548179819e+05 2.4444235188484075e-14 4.0676252178499533e+05 7.1308178048969223e+05 4.6045178772778578e+04 -999 2.76486512e-01 5.611327588e-01 -1.07976262e-01
 9 3 234820 8.2545324789135146e+05 4.6537004472248605e+05 2.3818473733694575e-14 4.3787769221283222e+05 8.4681617289023497e+05 4.0990352899865080e+04 -999 2.89222512e-01 5.472761490e-01 -1.12588631e-01
 10 3 234820 8.1107512906226749e+05 4.2548402379597421e+05 2.3436895641293943e-14 4.2236953408052243e+05 8.4018170876647031e+05 3.6859054418838838e+04 -999 2.96690142e-01 5.384022489e-01 -1.15140622e-01
 11 3 234820 7.1597266994729941e+05 3.9085046021932660e+05 2.2935018984627160e-14 4.0577642408855329e+05 7.2632037072251202e+05 3.3263900844865420e+04 -999 3.06008390e-01 5.267278673e-01 -1.18446147e-01
 12 3 234820 6.7426479844942887e+05 4.0440063039310760e+05 2.2509369073027483e-14 3.9089797766732384e+05 6.8048320050837565e+05 3.0325755086644949e+04 -999 3.12914148e-01 5.176336676e-01 -1.20842714e-01
 13 3 234820 7.0870350335598399e+05 3.8028540933120227e+05 2.2144999114096070e-14 3.9246809019011317e+05 7.1842667900742055e+05 2.7967725119552928e+04 -999 3.19473909e-01 5.083278732e-01 -1.23096531e-01
 14 3 234820 6.9585361815700552e+05 3.6501244704868912e+05 2.1861600032056426e-14 3.7305600977082812e+05 7.1592288944697706e+05 2.5971757402311305e+04 -999 3.23177514e-01 5.022692602e-01 -1.24410439e-01
 15 3 234820 7.3858046477675054e+05 3.9638372159609036e+05 2.1611569743789480e-14 3.8710626428274362e+05 7.6543364744953159e+05 2.4389005145752031e+04 -999 3.26844401e-01 4.956067371e-01 -1.25798144e-01
 16 3 234820 6.6183360524193128e+05 3.8621152688885556e+05 2.1351313364104878e-14 3.5939000380968314e+05 6.8976698022384802e+05 2.2312705861544877e+04 -999 3.29263787e-01 4.903270925e-01 -1.26790249e-01
 17 3 234820 5.7289898890669341e+05 3.1841786037501530e+05 2.1048267591098817e-14 3.2783073428381310e+05 5.8383157633745740e+05 2.0622594922835902e+04 -999 3.31975904e-01 4.838316970e-01 -1.27914128e-01
 18 3 234820 5.6986452277808776e+05 3.2820594904818031e+05 2.0787759275167052e-14 3.1871996919571608e+05 5.8014968314008834e+05 1.9240324682121514e+04 -999 3.34315734e-01 4.774690122e-01 -1.28856516e-01
 19 3 234820 5.8445157295608975e+05 2.9762797992351162e+05 2.0597960315288355e-14 3.1424645120787428e+05 5.9532091792669275e+05 1.8047502885940870e+04 -999 3.36177644e-01 4.717193164e-01 -1.29551931e-01
 20 3 234820 6.0401032616495481e+05 3.0300127069948503e+05 2.0483551186480741e-14 3.0460314790293475e+05 6.3114759226229182e+05 1.6939130161514455e+04 -999 3.37462385e-01 4.672742630e-01 -1.29987038e-01
 21 3 234820 5.0963864416417648e+05 2.7233424369025015e+05 2.0280878422949591e-14 2.8086190476272476e+05 5.2992310324964754e+05 1.5609851942829047e+04 -999 3.38750679e-01 4.619715286e-01 -1.30382610e-01
 22 3 234820 4.5967763428766187e+05 2.6692070889833663e+05 2.0080050808620349e-14 2.6418089598742948e+05 4.6851904358280438e+05 1.4521510793801575e+04 -999 3.39954126e-01 4.566532042e-01 -1.30726061e-01
 23 3 234820 4.6550088677794149e+05 2.5226420251634694e+05 1.9887639266773106e-14 2.5521990714076985e+05 4.7118638859892049e+05 1.3602756043384743e+04 -999 3.41189375e-01 4.508077060e-01 -1.31060693e-01
 24 3 234820 4.6374898787148891e+05 2.4440437311637629e+05 1.9753247035830640e-14 2.4543386813124144e+05 4.7894131266933930e+05 1.2803093646187041e+04 -999 3.42001837e-01 4.465970615e-01 -1.31273416e-01
 25 3 234820 5.4049459939923696e+05 3.0210884085574100e+05 1.9621414607607459e-14 2.5863042327577461e+05 5.7420889729904989e+05 1.2113331565449431e+04 -999 3.42859604e-01 4.418243821e-01 -1.31499153e-01
 26 3 234820 4.4146180712204828e+05 2.6801050341641501e+05 1.9399421412215134e-14 2.2976587671647192e+05 4.7217232247657777e+05 1.1201172812755693e+04 -999 3.43443796e-01 4.377721589e-01 -1.31648516e-01
 27 3 234820 3.6877942552708864e+05 2.1853703148426849e+05 1.9164527084797817e-14 2.0696659604781840e+05 3.8227234089472343e+05 1.0431618039849338e+04 -999 3.44039339e-01 4.334081645e-01 -1.31805231e-01
 28 3 234820 3.5441763144465850e+05 2.0468848267572041e+05 1.8945416885273708e-14 1.9469421086842331e+05 3.5867697012860805e+05 9.7702442246785231e+03 -999 3.44631694e-01 4.287855343e-01 -1.31964752e-01
 29 3 234820 3.6989977041697147e+05 2.0267880716421086e+05 1.8797453417390269e-14 1.8905959233660650e+05 3.8496381475468638e+05 9.2009621588184964e+03 -999 3.45065359e-01 4.251723417e-01 -1.32083648e-01
 30 3 234820 4.2872258701909333e+05 2.4678942722874656e+05 1.8672673430304933e-14 1.9687670063636152e+05 4.5786637269690179e+05 8.6976096046618604e+03 -999 3.45506198e-01 4.213404930e-01 -1.32206122e-01
 31 3 234820 3.5304901970966969e+05 2.2130448131102984e+05 1.8464986417071337e-14 1.7595559129099661e+05 3.8222967447701620e+05 8.0096511209620003e+03 -999 3.45795336e-01 4.182324447e-01 -1.32280586e-01
 32 3 234820 2.8318860332208406e+05 1.7954496814104301e+05 1.8212044221071172e-14 1.5505226978423190e+05 3.0076586378496088e+05 7.4287777447907392e+03 -999 3.46129572e-01 4.146031636e-01 -1.32366377e-01
 33 3 234820 2.5392542958070539e+05 1.5807293142891439e+05 1.7949073685998951e-14 1.4030507562082470e+05 2.5849982675536262e+05 6.9206394839272980e+03 -999 3.46493107e-01 4.105950267e-01 -1.32458686e-01
 34 3 234820 2.6941001524371357e+05 1.5442401881951164e+05 1.7746039294620366e-14 1.3506282958190370e+05 2.7752869054315839e+05 6.4729402635451152e+03 -999 3.46814804e-01 4.069803547e-01 -1.32539857e-01
 35 3 234820 2.7840203465132322e+05 1.5599044658673098e+05 1.7610047376818901e-14 1.3181603252695387e+05 2.9401249665983283e+05 6.0807387855192283e+03 -999 3.47055516e-01 4.042303707e-01 -1.32601001e-01
 36 3 234820 2.3631724240255056e+05 1.3888494461243783e+05 1.7403923414938164e-14 1.1958479945530783e+05 2.5308095865037982e+05 5.5322796513765497e+03 -999 3.47265085e-01 4.013693868e-01 -1.32648946e-01
 37 3 234820 1.9157294994872183e+05 1.2556139436849237e+05 1.7151302000086185e-14 1.0624406852233813e+05 2.0372223728629426e+05 5.0650505062503080e+03 -999 3.47509716e-01 3.980702845e-01 -1.32705402e-01
 38 3 234820 1.6664441046541306e+05 1.1168814325118389e+05 1.6868915559939123e-14 9.4305380465380251e+04 1.7067484014925262e+05 4.6665357529086587e+03 -999 3.47783584e-01 3.944204004e-01 -1.32769267e-01
 39 3 234820 1.7328908958186288e+05 1.0878920991426257e+05 1.6620380914388012e-14 8.8425144970276830e+04 1.7797214353732087e+05 4.3218727491555628e+03 -999 3.48042363e-01 3.910003226e-01 -1.32830592e-01
 40 3 234820 1.8345633823556814e+05 1.0902787544521700e+05 1.6425759795240000e-14 8.5897199684916297e+04 1.9183621422272664e+05 4.0175662858726660e+03 -999 3.48263541e-01 3.880813596e-01 -1.32884329e-01
 41 3 234820 1.5543656932219610e+05 1.0014895136127473e+05 1.6201530053081727e-14 7.7741806764592184e+04 1.6659707558123319e+05 3.6179162432624862e+03 -999 3.48437888e-01 3.854371126e-01 -1.32922239e-01
 42 3 234820 1.2220499738308496e+05 9.0181797567685964e+04 1.5925417900383963e-14 6.8246857953484636e+04 1.3155323516612625e+05 3.2767568164372669e+03 -999 3.48652587e-01 3.822549860e-01 -1.32970071e-01
 43 3 234820 1.0119021092270988e+05 8.1066547566121910e+04 1.5602415431434884e-14 5.9453547249589501e+04 1.0502854906362247e+05 2.9857816699629579e+03 -999 3.48901522e-01 3.786499904e-01 -1.33027499e-01
 44 3 234820 1.0031490492234498e+05 7.7510665554148247e+04 1.5323177399083902e-14 5.4282563234804118e+04 1.0365943933567606e+05 2.7367084973494057e+03 -999 3.49136623e-01 3.753055905e-01 -1.33084586e-01
 45 3 234820 1.0395938208414268e+05 7.7590821220443991e+04 1.5087978220513990e-14 5.1401006341780929e+04 1.0972778933290130e+05 2.5222966837230360e+03 -999 3.49342351e-01 3.723971574e-01 -1.33137903e-01
 46 3 234820 8.8618520201774314e+04 7.0989533187232635e+04 1.4859613283091160e-14 4.6895694916309301e+04 9.5588907690551918e+04 2.2366787585994966e+03 -999 3.49505137e-01 3.698073180e-01 -1.33176958e-01
 47 3 234820 7.0807166645969744e+04 6.4653102908447363e+04 1.4571850536307342e-14 4.1770080804331992e+04 7.7301272512593408e+04 2.0002253962275852e+03 -999 3.49702138e-01 3.667414270e-01 -1.33225496e-01
 48 3 234820 5.6907872425488516e+04 5.8909420469075878e+04 1.4224900673165965e-14 3.6576231318549399e+04 6.0968192416687554e+04 1.7913665111997161e+03 -999 3.49939364e-01 3.631200322e-01 -1.33286418e-01
 49 3 234820 5.1810449612399796e+04 5.5493192052838895e+04 1.3902611778205677e-14 3.2893824575602303e+04 5.4267966701523881e+04 1.6091408084854791e+03 -999 3.50172964e-01 3.595971262e-01 -1.33350633e-01
 50 3 234820 4.9830990033211732e+04 5.3488738703539544e+04 1.3611438266554279e-14 3.0408753333483157e+04 5.2212119715508961e+04 1.4643718646668381e+03 -999 3.50382929e-01 3.564269482e-01 -1.33413820e-01
 51 3 234820 4.3462196657749948e+04 5.0691916647469305e+04 1.3358898506298832e-14 2.8220037028817362e+04 4.6111727951585606e+04 1.2739254514803013e+03 -999 3.50539946e-01 3.536604732e-01 -1.33454005e-01
 52 3 234820 3.5976953882613190e+04 4.7634809106830166e+04 1.3037862614433280e-14 2.5663281217237345e+04 3.8307284075332122e+04 1.1185175164705352e+03 -999 3.50732297e-01 3.502584553e-01 -1.33503595e-01
 53 3 234820 2.9582087500007849e+04 4.4484278716177207e+04 1.2642251338939920e-14 2.2941644706907642e+04 3.0972852232839352e+04 9.9145773770298013e+02 -999 3.50960518e-01 3.461490352e-01 -1.33564107e-01
 54 3 234820 2.6090871756883676e+04 4.1924660676965665e+04 1.2246192982973686e-14 2.0708152671497381e+04 2.6782059317373547e+04 8.9169278291215596e+02 -999 3.51182356e-01 3.419806074e-01 -1.33627062e-01
 55 3 234820 2.3909842415539177e+04 3.9909454751665638e+04 1.1922413842178512e-14 1.9005843161311164e+04 2.4251371829432490e+04 8.1368895490954151e+02 -999 3.51374423e-01 3.381143849e-01 -1.33687865e-01
 56 3 234820 2.1430214853045603e+04 3.7984637203699502e+04 1.1612846806540278e-14 1.7508482819080898e+04 2.1695612590949211e+04 7.2646518917166520e+02 -999 3.51478262e-01 3.343661172e-01 -1.33688929e-01
 57 3 234820 1.8733311120397186e+04 3.5780514448903356e+04 1.1232013316537067e-14 1.5805572480422168e+04 1.8873002695338957e+04 6.6082738171137100e+02 -999 3.51589507e-01 3.296332869e-01 -1.33676368e-01
 58 3 234820 1.6439656417052265e+04 3.3400897739168970e+04 1.0775935090632187e-14 1.4024078383854907e+04 1.6527949611549309e+04 6.1704993044473304e+02 -999 3.51698441e-01 3.237846223e-01 -1.33642328e-01
 59 3 234820 1.5049620883020289e+04 3.1340315854289791e+04 1.0325894715437454e-14 1.2586446942628658e+04 1.5308926743583750e+04 5.8458064808882204e+02 -999 3.51779631e-01 3.178098384e-01 -1.33589897e-01
 60 3 234820 1.4224428920976408e+04 2.9648954184754100e+04 9.9450799340010271e-15 1.1519918351658254e+04 1.4769945473036378e+04 5.7168424734909263e+02 -999 3.51836952e-01 3.120707279e-01 -1.33528613e-01
 61 3 234820 1.3115253856800844e+04 2.7822426229210065e+04 9.5439538612979232e-15 1.0546012033785431e+04 1.4019926279308520e+04 5.6269731778859818e+02 -999 3.51832180e-01 3.051549283e-01 -1.33349562e-01
 62 3 234820 1.2294775106892715e+04 2.5759399855620548e+04 9.0348671855771485e-15 9.7204751381738643e+03 1.3609424049664325e+04 6.0468990237208709e+02 -999 3.51885136e-01 2.958115353e-01 -1.33109879e-01
 63 3 234820 1.2171372598994420e+04 2.3780104604088421e+04 8.5729674630170181e-15 9.4031791468634638e+03 1.3835382787912054e+04 7.0856614683421799e+02 -999 3.52075131e-01 2.843293884e-01 -1.32860497e-01
 64 3 234820 1.2591793741032678e+04 2.2262398018706332e+04 8.2172713512946273e-15 9.5976282074615538e+03 1.4446496440321525e+04 8.9399694712559847e+02 -999 3.52442888e-01 2.725166293e-01 -1.32716896e-01
 65 3 234820 1.3101442817038092e+04 2.1112866087389175e+04 8.0038792562994814e-15 9.9663148351099644e+03 1.5026010236323229e+04 1.1646830661630343e+03 -999 3.52977190e-01 2.606141875e-01 -1.32743222e-01
 66 3 234820 1.2812016098366223e+04 1.9203709545235721e+04 7.6901818687697228e-15 9.2117660104300121e+03 1.4694855503320547e+04 1.9954326115016297e+03 -999 3.53887213e-01 2.420054106e-01 -1.33175473e-01
 67 3 234820 1.2655109594679914e+04 1.8214431722035977e+04 7.4465898794399618e-15 8.8149438065228478e+03 1.4248373684277620e+04 5.2206994112997445e+03 -999 3.54910114e-01 2.179951731e-01 -1.34392124e-01
 68 3 234820 1.2293301667230975e+04 1.8385128539976526e+04 7.2044636939539677e-15 8.9325231462410247e+03 1.3414327667379228e+04 1.2809864498172406e+04 -999 3.54719355e-01 1.927142062e-01 -1.36587824e-01
 69 3 234820 1.2034627982853195e+04 1.8770745494494346e+04 6.7022677812768451e-15 9.1167231571282100e+03 1.2560551920235472e+04 2.4970753187350936e+04 -999 3.52394141e-01 1.733594105e-01 -1.38734915e-01
 70 3 234820 1.2007791366397758e+04 1.8716277819666604e+04 6.2396604304617353e-15 9.0809058781976837e+03 1.2215432569493898e+04 3.4108145859718570e+04 -999 3.50339043e-01 1.658374014e-01 -1.39443841e-01
 71 3 234820 9.6847895760777865e+03 1.5022812262327687e+04 5.6282567724455259e-15 8.0905942419243866e+03 1.0029928615625195e+04 1.0512967366281238e+05 -999 3.43557979e-01 1.498023271e-01 -1.40065463e-01
 72 3 234820 8.2518422235916823e+03 1.5266654568874774e+04 5.1082096699451468e-15 6.8686699985926944e+03 8.3755888401085049e+03 1.0813069804983702e+05 -999 3.31932768e-01 1.321535716e-01 -1.38796493e-01
 73 3 234820 8.1542553873106053e+03 2.9593073491755462e+04 4.6493402298605340e-15 5.6921962757903348e+03 1.0154418745285280e+04 4.8951849686039808e+04 -999 3.22687316e-01 1.216969716e-01 -1.35908630e-01
 74 3 234820 7.8968637611469703e+03 3.0337358801211434e+04 4.3604307614534167e-15 5.6961873195869093e+03 1.5223192770325268e+04 2.6720435261962604e+04 -999 3.21273052e-01 1.200441352e-01 -1.35213769e-01
 75 3 234820 7.5365522534074480e+03 2.5249832119591894e+04 4.2669774972482712e-15 5.4710844383242775e+03 1.4784074590576403e+04 1.6340385137259924e+04 -999 3.20533981e-01 1.191223668e-01 -1.34813815e-01
 76 3 234820 6.5962853460523211e+03 1.8552131506079906e+04 4.1657761486996783e-15 5.0708377775433582e+03 9.0545985150646629e+03 1.3349000937144381e+04 -999 3.16619059e-01 1.145042616e-01 -1.32943009e-01
 77 3 234820 5.9228545015836780e+03 1.4780713406577614e+04 4.0307442803372196e-15 4.9463319893397311e+03 6.2206568670610968e+03 1.0880135169523008e+04 -999 3.13243782e-01 1.099957668e-01 -1.30815239e-01
 78 3 234820 5.5721448439730702e+03 1.3246526814535620e+04 3.8174632761422324e-15 4.9186852490485262e+03 5.5853628488096265e+03 8.3435803199068396e+03 -999 3.11810864e-01 1.071243586e-01 -1.29337235e-01
 79 3 234820 5.3934247763478115e+03 1.1900557060106807e+04 3.7548811816248395e-15 4.9533408934109875e+03 5.3192666668849370e+03 6.5259222803288903e+03 -999 3.11523841e-01 1.044403679e-01 -1.28004712e-01
 80 3 234820 5.3893825649786404e+03 1.0976348969872091e+04 3.6984974860490123e-15 4.9984456845332988e+03 5.2782287096318505e+03 5.5019880555835525e+03 -999 3.12244664e-01 1.024622578e-01 -1.27129140e-01
 81 3 234820 4.7630716164104933e+03 8.2530936444642848e+03 1.8915243238363139e-13 4.5202182858731294e+03 4.6006144285150795e+03 5.9477741824400791e+03 -999 3.25625337e-01 9.653031449e-02 -1.26930021e-01
 82 3 234820 5.1138493353174399e+03 8.0250142964049328e+03 3.2587703983079759e-13 4.4525025621719906e+03 4.9502522044739735e+03 9.7370975607049713e+03 -999 3.51927182e-01 9.074074712e-02 -1.31051824e-01
 83 3 234820 5.5626951427757695e+03 9.5578522264410512e+03 3.8544651980271642e-13 4.4929396079832832e+03 5.4650979690518307e+03 1.5950039602953839e+04 -999 3.82936799e-01 8.651035325e-02 -1.39099782e-01
 84 3 234820 5.7443614456257446e+03 9.9315817986970669e+03 4.0056748679952882e-13 4.1094661839919163e+03 6.0098609710176243e+03 2.1866144387936198e+04 -999 4.01768988e-01 8.451482910e-02 -1.45184375e-01
 85 3 234820 6.0914743922364869e+03 9.7344986262391831e+03 4.0895341788426314e-13 3.8291448548132189e+03 7.3681708348677139e+03 4.2591676511543352e+04 -999 4.19094726e-01 8.292026326e-02 -1.51150927e-01
 86 3 234820 3.6727739077882238e+03 5.6000766327179572e+03 3.7732221370556128e-13 3.1858532251747624e+03 3.9107064340611637e+03 8.3258348221982116e+04 -999 4.43556618e-01 8.100847248e-02 -1.59674571e-01
 87 3 234820 3.0256604525974954e+03 3.8859664708907726e+03 4.0082865394380576e-13 2.5641137455386533e+03 3.1700166490475776e+03 2.5730318362076057e+04 -999 4.76962121e-01 7.872729303e-02 -1.70996444e-01
 88 3 234820 2.6673036322484950e+03 5.4276560037311829e+03 4.0280075717176051e-13 2.2009750100643719e+03 3.2762035300482621e+03 1.9090542834700191e+04 -999 5.03957902e-01 7.715926761e-02 -1.79316720e-01
 89 3 234820 2.5565891330926615e+03 4.4506825031349335e+03 3.9960398449538589e-13 2.0636596916071512e+03 2.7875762535412682e+03 1.9322462865648897e+04 -999 5.11265647e-01 7.680989009e-02 -1.81295006e-01
 90 3 234820 2.4655634866603123e+03 4.0732234202862091e+03 3.9426345818453539e-13 1.9571263985107075e+03 2.5231663246242351e+03 1.8289910709274147e+04 -999 5.20388937e-01 7.640186862e-02 -1.83667342e-01
 91 3 234820 1.9471843475768851e+03 2.7485572699852478e+03 7.8773687569885508e-13 1.3291258451096137e+03 1.8664262198296162e+03 7.4876029176917189e+04 -999 5.97192054e-01 7.436892475e-02 -1.98705277e-01
 92 3 234820 1.7802452244457809e+03 2.5674219664953143e+03 9.0800133360276463e-13 9.0571970923089305e+02 1.6721955135504743e+03 2.6781150467663047e+04 -999 6.70099359e-01 7.470239859e-02 -2.07202560e-01
 93 3 234820 1.7235950046219737e+03 2.2527025172337285e+03 9.2577574758876638e-13 6.6714177475952772e+02 1.6229802976665055e+03 1.5459782782712084e+04 -999 7.25799172e-01 7.609542907e-02 -2.09947942e-01
 94 3 234820 1.6463749084932690e+03 2.0605861048164147e+03 9.8791327962525113e-13 5.9830968888378118e+02 1.5543307019775566e+03 1.2804974872013818e+04 -999 7.47549452e-01 7.691719181e-02 -2.09983337e-01
 95 3 234820 1.5925559651147482e+03 1.7631940618035217e+03 9.3987851317444339e-13 5.0389805090719307e+02 1.5253538988816017e+03 1.0352162425598008e+04 -999 7.89864782e-01 7.864954220e-02 -2.09367167e-01
 96 3 234820 1.1693647227798363e+03 1.4249107991910234e+03 5.0772174094946818e-12 3.4013728050062156e+02 1.0864413290715313e+03 1.1234806027306582e+04 -999 8.77743455e-01 8.196590620e-02 -2.04978825e-01
 97 3 234820 1.0197313477065049e+03 1.2459362308374148e+03 4.3356277216862394e-12 3.0354768131288216e+02 9.2614453824871725e+02 5.8419717636774303e+03 -999 9.33793966e-01 8.229416746e-02 -2.01003467e-01
 98 3 234820 9.3974194414349063e+02 1.1497370437777392e+03 4.0586967460505605e-12 2.9380414334621105e+02 8.3753615865325173e+02 4.6721406931621632e+03 -999 9.74569420e-01 8.157017217e-02 -1.97969641e-01
 99 3 234820 9.0656058688001485e+02 1.1432682602740285e+03 4.5618174756971701e-12 2.8246085411694321e+02 8.0060132767633036e+02 5.7423379414650499e+03 -999 9.97154325e-01 8.080911735e-02 -1.96213585e-01
 100 3 234820 8.9317386888527494e+02 1.1816759666354706e+03 4.9640897086107453e-12 2.7404649557514693e+02 7.8787148275665618e+02 7.1893820097439138e+03 -999 1.01089583e+00 8.021647116e-02 -1.95082507e-01
 101 3 234820 8.7145035305645774e+02 1.4707490531733251e+03 5.2573029472327427e-12 2.8091011970793778e+02 7.8171807122927009e+02 9.6538152949391315e+03 -999 1.02535331e+00 7.974751110e-02 -1.94681568e-01
 102 3 234820 8.6204181003998372e+02 1.6986252243579725e+03 5.5675803033447878e-12 2.8549936925272925e+02 7.8462602054876447e+02 1.5810980680286179e+04 -999 1.03947574e+00 7.923700460e-02 -1.94148880e-01
 103 3 234820 8.6768304435401240e+02 1.6123942129599784e+03 5.9368970617067590e-12 2.8071298786817187e+02 7.8114571975040656e+02 2.0292184669175174e+04 -999 1.05299984e+00 7.869761849e-02 -1.93516705e-01
 104 3 234820 8.9064871249029761e+02 1.4161491076323134e+03 6.3034802884435730e-12 2.7103475271015799e+02 7.8975389506989711e+02 1.8329823126412175e+04 -999 1.06534370e+00 7.815894448e-02 -1.92817957e-01
 105 3 234820 9.3992756965596573e+02 1.2859575496497025e+03 6.6807467197244217e-12 2.6616866845441251e+02 8.3009355821633494e+02 1.4147949128384325e+04 -999 1.07640543e+00 7.763067485e-02 -1.92082494e-01
 106 3 234820 9.3867689928035122e+02 1.3305466361681631e+03 6.1127330771013697e-12 2.9417628524149058e+02 8.2788479320755584e+02 1.2149627215053166e+04 -999 1.08733340e+00 7.713582992e-02 -1.91282349e-01
 107 3 234820 9.3867689928035111e+02 1.3650256505335167e+03 6.1958993143433287e-12 2.9831578449501507e+02 8.2908339872738873e+02 1.3598071296808932e+04 -999 1.08733340e+00 7.713582992e-02 -1.91282349e-01
 108 3 234820 9.5782965502041202e+02 1.4271899248570485e+03 6.2327701791453676e-12 3.1803609043861638e+02 8.5167735599256434e+02 1.4879225563291186e+04 -999 1.09327163e+00 7.695606089e-02 -1.90927456e-01
 109 3 234820 9.1185434830355678e+02 1.3058042157436378e+03 4.6869490152200168e-12 2.9200602152197979e+02 8.0384509450559392e+02 1.5056108344362285e+04 -999 1.09561146e+00 7.691258793e-02 -1.90955944e-01
 110 3 234820 9.0870789118708467e+02 1.2000688736250763e+03 3.2050091726917487e-12 2.7826322257983418e+02 8.0176251982651274e+02 1.5330418008744497e+04 -999 1.09859576e+00 7.685962156e-02 -1.91038397e-01
 111 3 234820 9.1187821655408538e+02 1.1397383851459394e+03 2.4254362495514040e-12 2.7551900268316228e+02 8.0582518361271445e+02 1.5319665466536431e+04 -999 1.10092485e+00 7.681939637e-02 -1.91140605e-01
 112 3 234820 9.1985123450916467e+02 1.0813419560497250e+03 1.7904110400876653e-12 2.7538213443228972e+02 8.1449289329950352e+02 1.5479678733506817e+04 -999 1.10362777e+00 7.675724911e-02 -1.91249653e-01
 113 3 234820 9.3719195504674076e+02 1.0280679899095694e+03 1.3682204111254722e-12 2.7556296927216675e+02 8.3115769481975201e+02 1.5712641340224722e+04 -999 1.10663050e+00 7.665368681e-02 -1.91321168e-01
 114 3 234820 9.5350643566582028e+02 9.9909757011457521e+02 1.2232727340281742e-12 2.7498849950960880e+02 8.4598032587316015e+02 1.5826834127239359e+04 -999 1.10856527e+00 7.654162157e-02 -1.91283121e-01
 115 3 234820 9.7108878454466389e+02 9.8022285643975670e+02 1.1494074576562559e-12 2.7363047049769779e+02 8.6265489636641439e+02 1.6018208062055513e+04 -999 1.11014839e+00 7.642056208e-02 -1.91194222e-01
 116 3 234820 9.8083036421187683e+02 9.5963066140239971e+02 9.5438369496665175e-13 2.6690264819218220e+02 8.7062611129703362e+02 1.6349524822818656e+04 -999 1.11209399e+00 7.629200590e-02 -1.91123304e-01
 117 3 234820 1.0011579455886668e+03 9.3754705245808827e+02 8.7428531666161243e-13 2.5922425286319680e+02 8.8816280039314483e+02 1.6506708724435906e+04 -999 1.11440540e+00 7.611384004e-02 -1.90982931e-01
 118 3 234820 1.0258831920994542e+03 9.0940701281432825e+02 9.0579791933924325e-13 2.5058662719904302e+02 9.1108993283205416e+02 1.6174127058428794e+04 -999 1.11704436e+00 7.581471360e-02 -1.90600972e-01
 119 3 234820 1.0577026350118485e+03 8.9558147093797118e+02 9.5207764071647461e-13 2.4212151428021107e+02 9.4161149156023237e+02 1.6002135118579732e+04 -999 1.11951060e+00 7.544846194e-02 -1.90042685e-01
 120 3 234820 1.0782331559332545e+03 8.8238831054663694e+02 9.5869253473543928e-13 2.3627082298441761e+02 9.6079588312007809e+02 1.5803803337033998e+04 -999 1.12102343e+00 7.521248578e-02 -1.89662699e-01
 121 3 234820 1.0743454480457815e+03 8.6670533196753786e+02 7.6686208545352358e-13 2.2925225669680933e+02 9.5560697551172348e+02 1.5448497356193935e+04 -999 1.12289154e+00 7.502037165e-02 -1.89412189e-01
 122 3 234820 1.0732705133349780e+03 8.5009789795340316e+02 6.8965278092142076e-13 2.2292413605696586e+02 9.5322283711494424e+02 1.4845612639006371e+04 -999 1.12496749e+00 7.474403586e-02 -1.88988149e-01
 123 3 234820 1.0851875677432026e+03 8.3278222046521114e+02 6.9894714700781654e-13 2.1758984611949330e+02 9.6331616074248211e+02 1.4635741577540859e+04 -999 1.12745136e+00 7.437910765e-02 -1.88397429e-01
 124 3 234820 1.1070013420225118e+03 8.2206409229706071e+02 7.0654145952070796e-13 2.1427131519429591e+02 9.8435296275300004e+02 1.4289721152966669e+04 -999 1.12955990e+00 7.404939777e-02 -1.87837129e-01
 125 3 234820 1.1261651064221758e+03 8.1889247412943723e+02 7.0036269973449047e-13 2.1169394384382130e+02 1.0052627403273967e+03 1.3688447195666990e+04 -999 1.13139743e+00 7.376784733e-02 -1.87350532e-01
 126 3 234820 1.0935920529880041e+03 8.0750840154692310e+02 6.2969553760170412e-13 2.0606814028865091e+02 9.6902368712616749e+02 1.3212334159672642e+04 -999 1.13392811e+00 7.363194820e-02 -1.87233685e-01
 127 3 234820 1.0840408716335019e+03 7.9636673413386404e+02 7.8784998704206467e-13 2.0405367018139171e+02 9.5605820205484360e+02 1.2870713697637186e+04 -999 1.13697625e+00 7.346484729e-02 -1.87074431e-01
 128 3 234820 1.0887511543614614e+03 7.8550846887750379e+02 9.6263152066148674e-13 2.0168639636109404e+02 9.6231075897128812e+02 1.2609088954739063e+04 -999 1.14016228e+00 7.327699716e-02 -1.86862672e-01
 129 3 234820 1.1030181942678892e+03 7.9255446856293099e+02 1.0590917978653367e-12 1.9944111675410591e+02 9.7871014607297536e+02 1.2357870839729061e+04 -999 1.14384796e+00 7.304696953e-02 -1.86567828e-01
 130 3 234820 1.1132326303545767e+03 7.7672565677966395e+02 1.0476867923209800e-12 1.9684703745076777e+02 9.8875847385674626e+02 1.1995051764182585e+04 -999 1.14550195e+00 7.291859012e-02 -1.86363193e-01
 131 3 234820 1.0555869020796720e+03 7.6054728420268759e+02 8.8019605296054572e-13 1.8940705775892189e+02 9.3037919366642541e+02 1.1693659356145874e+04 -999 1.14818975e+00 7.283388648e-02 -1.86304318e-01
 132 3 234820 1.0308819547338301e+03 7.4697164327594635e+02 9.3592585700106855e-13 1.8520503650927361e+02 9.0475131575014188e+02 1.1555427940543663e+04 -999 1.15174539e+00 7.274734661e-02 -1.86272333e-01
 133 3 234820 1.0432463072061812e+03 7.3742552951601476e+02 1.2205452534849676e-12 1.8214671415766648e+02 9.2012055541238510e+02 1.1517294587754315e+04 -999 1.15583273e+00 7.267919674e-02 -1.86288395e-01
 134 3 234820 1.0408084363648920e+03 7.3364928854610253e+02 1.4306128697503883e-12 1.8005571471926800e+02 9.1772712129777960e+02 1.1578808675843020e+04 -999 1.15840870e+00 7.264608318e-02 -1.86295338e-01
 135 3 234820 1.0563115030834701e+03 7.4064642412825117e+02 1.6384529847033743e-12 1.8011722690976177e+02 9.3418535006568914e+02 1.1594877809981763e+04 -999 1.16122382e+00 7.262491893e-02 -1.86331426e-01
 136 3 234820 9.9704399262090317e+02 7.2604288584506469e+02 1.4054661686009379e-12 1.7569886587784598e+02 8.7361461977006570e+02 1.2042419339828195e+04 -999 1.16340775e+00 7.262193530e-02 -1.86386361e-01
 137 3 234820 9.6570461827724068e+02 7.1527857062998805e+02 1.3137477200940413e-12 1.7438436086913302e+02 8.4128989294288203e+02 1.2171901737580352e+04 -999 1.16592162e+00 7.262694569e-02 -1.86463995e-01
 138 3 234820 9.5528124342204967e+02 7.0806694583296542e+02 1.3346005609213405e-12 1.7452486067160865e+02 8.3267445293731782e+02 1.3367786172696580e+04 -999 1.16863050e+00 7.264830908e-02 -1.86581808e-01
 139 3 234820 9.6622569997782171e+02 7.1543849817084470e+02 1.4102141086817170e-12 1.7597042595125941e+02 8.4672929562231786e+02 1.3957076323026768e+04 -999 1.17185990e+00 7.267358546e-02 -1.86720693e-01
 140 3 234820 9.6428834518478686e+02 7.0671063150255247e+02 1.4262709485849903e-12 1.7507138383624113e+02 8.4526435219805524e+02 1.3673651245472223e+04 -999 1.17303049e+00 7.265388907e-02 -1.86703380e-01
 141 3 234820 8.9936870000430622e+02 6.9131847051028274e+02 1.3058188745694811e-12 1.7384045618625493e+02 7.8042619516856018e+02 1.4473701262769493e+04 -999 1.17509862e+00 7.270560580e-02 -1.86876797e-01