TITLE = "005.02 ALPHA 3.25 GRIDLEVEL 5"

VARIABLES = "ITERATION"  "GRID_LEVEL"  "GRID_SIZE"  "CONTINUITY"  "MOMENTUMX"  "MOMENTUMY"  "MOMENTUMZ"  "ENERGY"  "TURB1"  "TURB2"  "CL_TOT"  "CD_TOT"  "CM_TOT"

DATASETAUXDATA ParticipantID   = "005"
DATASETAUXDATA SubmissionDate  = "10-31-2024"
DATASETAUXDATA Name            = "Jeffrey A. Housman"
DATASETAUXDATA Email           = "jeffrey.a.housman@nasa.gov"
DATASETAUXDATA Institution     = "NASA Ames Research Center"
DATASETAUXDATA SolverName      = "LAVA Curvilinear"
DATASETAUXDATA BasicAlgorithm  = "RANS"
DATASETAUXDATA TurbulenceModel = "SA-RC-comp-neg"
DATASETAUXDATA GridId          = "Multiblock"
DATASETAUXDATA Discretization  = "Finite difference"
DATASETAUXDATA Order           = "2"
DATASETAUXDATA DistanceCalc    = "Exact"
DATASETAUXDATA Notes           = " "

ZONE T = "005.02 - Alpha 3.25 - Grid Level 5"
AUXDATA Tstatic         = "271.0"
AUXDATA Deltat          = "-999"
AUXDATA GridFileName    = "ONERA-OAT15A_230mmChord_780mmSpan_upZ_2024_06_25-Structured_23mm_Level-5.x"
AUXDATA Misc            = " "
 0 5 752103 4.9617471765853808e+05 1.5921761939583987e+06 7.6805201071090001e-14 4.9060554259660497e+05 5.2749657498190366e+05 2.8721091840794696e+06 -999 1.64804485e-02 9.098685142e-01 -1.02972698e-02
 1 5 752103 7.3717077891007240e+05 1.1880515310333259e+06 6.5425929925668255e-14 3.7178072168183874e+05 7.1892059800835548e+05 1.8610352786109957e+06 -999 5.14359636e-02 8.318544651e-01 -2.46111778e-02
 2 5 752103 9.0156087156606256e+05 1.0123765405084495e+06 5.7061515265653199e-14 4.0763950381641212e+05 8.6621744488041685e+05 1.2107310722890068e+06 -999 9.36161993e-02 7.864133436e-01 -4.17475335e-02
 3 5 752103 1.0490688691394611e+06 9.0316261561632901e+05 5.0694112061121701e-14 4.8362711579583882e+05 1.0065583646380152e+06 7.9186582811907399e+05 -999 1.32155997e-01 7.568116499e-01 -5.76820230e-02
 4 5 752103 1.1762040039609347e+06 8.2631061232615612e+05 4.5740932092752901e-14 5.7644700356187986e+05 1.1397839235371440e+06 5.1052430957705359e+05 -999 1.66430369e-01 7.368339628e-01 -7.04149928e-02
 5 5 752103 1.3082064853753445e+06 8.2734614628886501e+05 4.1858699018712316e-14 6.7356193661277299e+05 1.2978408737913081e+06 3.2839806361897755e+05 -999 1.92351133e-01 7.211955780e-01 -7.98984146e-02
 6 5 752103 1.1952506494369789e+06 8.5366756517290359e+05 3.8931675149177604e-14 7.0750721082478552e+05 1.1875834157990804e+06 1.7444283988563114e+05 -999 2.10249706e-01 7.003151847e-01 -8.71599163e-02
 7 5 752103 1.2266569219970796e+06 8.6066647302530182e+05 3.6321650823819323e-14 7.3814503150152822e+05 1.2158585812792226e+06 1.2221553415442149e+05 -999 2.24963006e-01 6.774742687e-01 -9.36113251e-02
 8 5 752103 1.2894177123136569e+06 8.4168161709677370e+05 3.4398157580955567e-14 7.5827884908935067e+05 1.2983803349375932e+06 1.0055118317508469e+05 -999 2.36440247e-01 6.549203628e-01 -9.84222895e-02
 9 5 752103 1.5595484915569990e+06 9.1742805882927286e+05 3.2787004148997241e-14 8.3596873471239989e+05 1.6301578258921532e+06 8.8709852670344568e+04 -999 2.47425670e-01 6.298046251e-01 -1.02656731e-01
 10 5 752103 1.4574878039485305e+06 7.6554005130613700e+05 3.1868937709549975e-14 8.0487643646170304e+05 1.5021093510065947e+06 7.9598395322741868e+04 -999 2.53333802e-01 6.148695704e-01 -1.04872183e-01
 11 5 752103 1.3808720545810387e+06 7.8838513920376578e+05 3.0813679933054011e-14 7.9658400592257502e+05 1.4128620374253122e+06 7.1813238118786947e+04 -999 2.59467945e-01 5.982537738e-01 -1.07226398e-01
 12 5 752103 1.2814540514359069e+06 7.6810436071270204e+05 2.9793831048050928e-14 7.6824331302920228e+05 1.2978616645096960e+06 6.6041557345667723e+04 -999 2.64726209e-01 5.826807509e-01 -1.09159004e-01
 13 5 752103 1.4312469630877513e+06 8.1523179148055939e+05 2.8834842675036602e-14 8.0518600144946389e+05 1.4800048605740021e+06 6.1638773716664895e+04 -999 2.69748625e-01 5.662816363e-01 -1.11010066e-01
 14 5 752103 1.3471326832262659e+06 6.9930749145709584e+05 2.8268456351628895e-14 7.6893851837449637e+05 1.3754293211227248e+06 5.7686958661754696e+04 -999 2.72558568e-01 5.561020923e-01 -1.12112386e-01
 15 5 752103 1.5480609432743564e+06 8.4047280856530752e+05 2.7832562857126255e-14 8.0555525016084092e+05 1.6430386255568110e+06 5.4386143109677723e+04 -999 2.75263331e-01 5.457448255e-01 -1.13265290e-01
 16 5 752103 1.3006298121511792e+06 7.3332524156152492e+05 2.7287339539323980e-14 7.3629387887986086e+05 1.3653414178644291e+06 4.9959464699149874e+04 -999 2.77299778e-01 5.368217569e-01 -1.14162016e-01
 17 5 752103 1.2021098583081497e+06 6.8423354578869196e+05 2.6718723936495717e-14 7.1112300338313391e+05 1.2215336018614499e+06 4.6479552640275469e+04 -999 2.79366005e-01 5.267746691e-01 -1.15031794e-01
 18 5 752103 1.1766996208517142e+06 6.4427993340776779e+05 2.6318411472650521e-14 6.9298061870343669e+05 1.1878908909022594e+06 4.3713806929072081e+04 -999 2.80956379e-01 5.180579223e-01 -1.15626139e-01
 19 5 752103 1.3098959833253084e+06 6.8871086626697017e+05 2.6005528314366440e-14 6.9856813307689363e+05 1.3721800996816356e+06 4.1356715006482933e+04 -999 2.82275801e-01 5.101360451e-01 -1.16046593e-01
 20 5 752103 1.2936698003218358e+06 6.2980219835468382e+05 2.5787636295287549e-14 7.0069358368056698e+05 1.3409716998852869e+06 3.9240251023239325e+04 -999 2.83228972e-01 5.038629228e-01 -1.16316207e-01
 21 5 752103 1.1776439835140433e+06 6.5301933353714051e+05 2.5417130993741442e-14 6.6183702138518775e+05 1.2272389153224321e+06 3.6305580067720293e+04 -999 2.83999768e-01 4.977489869e-01 -1.16519880e-01
 22 5 752103 1.0484983746875400e+06 5.8080916825534170e+05 2.4980933606934612e-14 6.1716088916833699e+05 1.0717785049165543e+06 3.4004624525532163e+04 -999 2.84845679e-01 4.904557485e-01 -1.16738347e-01
 23 5 752103 1.0544165714128586e+06 5.9727148967847123e+05 2.4590890353745059e-14 6.0523583981969941e+05 1.0781970784754506e+06 3.2113585680389053e+04 -999 2.85591306e-01 4.834428098e-01 -1.16932882e-01
 24 5 752103 1.1920832585152686e+06 6.2803576756728464e+05 2.4312577142511303e-14 6.2307769491078611e+05 1.2500772222060771e+06 3.0572474615487699e+04 -999 2.86260128e-01 4.766995884e-01 -1.17115994e-01
 25 5 752103 1.1354875327135040e+06 5.4296061112248688e+05 2.4087072605931374e-14 5.9885922797633358e+05 1.1879142832969860e+06 2.9047593087558402e+04 -999 2.86661282e-01 4.723395387e-01 -1.17232457e-01
 26 5 752103 1.0170831557696040e+06 5.3356922238260799e+05 2.3693296702908512e-14 5.6713928854336136e+05 1.0611081697203587e+06 2.7006161468525173e+04 -999 2.87043081e-01 4.674102007e-01 -1.17342114e-01
 27 5 752103 9.0778310067850305e+05 5.1241130375766545e+05 2.3254776503580318e-14 5.3040940153984830e+05 9.3086151730668149e+05 2.5416133153523846e+04 -999 2.87464819e-01 4.617988172e-01 -1.17466338e-01
 28 5 752103 9.1426058293866657e+05 5.1118966521943902e+05 2.2884662626315178e-14 5.1675365656303684e+05 9.3502059862704482e+05 2.4106933974987922e+04 -999 2.87876756e-01 4.562223347e-01 -1.17588959e-01
 29 5 752103 1.0349575113770341e+06 5.4385487391175353e+05 2.2641212168262281e-14 5.2845009956796886e+05 1.0856110245491134e+06 2.2993790206433598e+04 -999 2.88260132e-01 4.509411270e-01 -1.17700894e-01
 30 5 752103 1.0013384874296718e+06 4.7497057029789087e+05 2.2526420890806129e-14 5.1450414802464290e+05 1.0481700583628438e+06 2.1901265655603962e+04 -999 2.88508756e-01 4.474320260e-01 -1.17771554e-01
 31 5 752103 8.8791923510773247e+05 4.7301392770180979e+05 2.2290855307895336e-14 4.8232995047001546e+05 9.3226780247580330e+05 2.0402244789187302e+04 -999 2.88751769e-01 4.434572212e-01 -1.17835329e-01
 32 5 752103 7.7524804158969841e+05 4.3747837583981064e+05 2.2049509933725367e-14 4.4619320955415838e+05 7.9814785887759784e+05 1.9243070079858444e+04 -999 2.89032002e-01 4.388781884e-01 -1.17909191e-01
 33 5 752103 7.6896258178703999e+05 4.2897616054932383e+05 2.1884446546552943e-14 4.3002673884953343e+05 7.8251802646712784e+05 1.8300195313614782e+04 -999 2.89315082e-01 4.342419585e-01 -1.17984221e-01
 34 5 752103 8.4531244281223952e+05 4.4967989638579008e+05 2.1849531836370159e-14 4.2982111513664917e+05 8.8561455198142363e+05 1.7463946754100627e+04 -999 2.89549477e-01 4.303840079e-01 -1.18046891e-01
 35 5 752103 9.6118397844189231e+05 5.4149934032547451e+05 2.1871406776032280e-14 4.4813437798869476e+05 1.0326071343845802e+06 1.6716456357004081e+04 -999 2.89767708e-01 4.267761414e-01 -1.18105865e-01
 36 5 752103 8.0021140120474133e+05 4.6616302784038102e+05 2.1685522159559682e-14 4.0674693886550498e+05 8.6323059156113444e+05 1.5581834200173740e+04 -999 2.89932847e-01 4.236586581e-01 -1.18147540e-01
 37 5 752103 6.6205845683391148e+05 3.8534605853525642e+05 2.1465545794673677e-14 3.7032669163883611e+05 6.9154687848769850e+05 1.4706008822084867e+04 -999 2.90134089e-01 4.199175706e-01 -1.18199184e-01
 38 5 752103 6.3295973775262176e+05 3.6357101172785606e+05 2.1263675330188290e-14 3.5070567758104950e+05 6.4278009627027775e+05 1.3982816176188760e+04 -999 2.90343239e-01 4.160931527e-01 -1.18253875e-01
 39 5 752103 6.9988153858323838e+05 3.7662058588760439e+05 2.1143759945483464e-14 3.4896393811805011e+05 7.2792181403178943e+05 1.3359228178838453e+04 -999 2.90532366e-01 4.126823526e-01 -1.18304149e-01
 40 5 752103 7.6248299987154582e+05 3.9298533516375441e+05 2.1095141213300173e-14 3.5497867618359823e+05 8.0533413282070041e+05 1.2788747418514151e+04 -999 2.90695173e-01 4.097748484e-01 -1.18348012e-01
 41 5 752103 6.4851234059205279e+05 3.6214504446932301e+05 2.0863913697677437e-14 3.2544649026098667e+05 6.9444035916681041e+05 1.1894529549594115e+04 -999 2.90832947e-01 4.070307839e-01 -1.18382831e-01
 42 5 752103 5.3455815481687884e+05 3.1520198827679339e+05 2.0570355600815752e-14 2.9505296707411093e+05 5.6075510167816724e+05 1.1178594038525354e+04 -999 2.90998038e-01 4.038158452e-01 -1.18425313e-01
 43 5 752103 4.9961306099004339e+05 2.8809842074048420e+05 2.0274804618043105e-14 2.7460752341220848e+05 5.0544507048320700e+05 1.0572346611281486e+04 -999 2.91184084e-01 4.002772469e-01 -1.18473977e-01
 44 5 752103 5.4332876932175935e+05 2.9427690196466661e+05 2.0075763879150889e-14 2.6970944567654748e+05 5.6081121466171439e+05 1.0051438497509729e+04 -999 2.91348916e-01 3.972125745e-01 -1.18517715e-01
 45 5 752103 5.9895458299405791e+05 3.3100297489200125e+05 1.9951302034935647e-14 2.7152716597641713e+05 6.3819438388727966e+05 9.5828093804804703e+03 -999 2.91487080e-01 3.946855900e-01 -1.18554804e-01
 46 5 752103 5.0657579682558571e+05 2.8041170886298281e+05 1.9706881226535658e-14 2.4863833117619099e+05 5.4455329505437042e+05 8.9071935367545939e+03 -999 2.91612148e-01 3.921800346e-01 -1.18586185e-01
 47 5 752103 4.1563844989242178e+05 2.4649777215479157e+05 1.9423164712027913e-14 2.2558182062508113e+05 4.3903417673964298e+05 8.3382729386001647e+03 -999 2.91759075e-01 3.893085001e-01 -1.18623622e-01
 48 5 752103 3.7866362735424220e+05 2.2508542771415657e+05 1.9146286086988748e-14 2.0803722608592766e+05 3.8465847077867202e+05 7.8475413651886793e+03 -999 2.91923877e-01 3.861685586e-01 -1.18666235e-01
 49 5 752103 4.0335211896456662e+05 2.2474090156115592e+05 1.8968897859808272e-14 2.0136875592952472e+05 4.1292524554499972e+05 7.4255466630757210e+03 -999 2.92078512e-01 3.832929255e-01 -1.18706813e-01
 50 5 752103 4.4024828670754092e+05 2.3887406896336048e+05 1.8893670040854037e-14 2.0061762566475075e+05 4.6209197261049406e+05 7.0487892958528046e+03 -999 2.92214605e-01 3.808080077e-01 -1.18743097e-01
 51 5 752103 3.7766782005328604e+05 2.1162233471229969e+05 1.8685009725180361e-14 1.8390843863597640e+05 4.0326116947814752e+05 6.5223311284112879e+03 -999 2.92330471e-01 3.785417203e-01 -1.18772219e-01
 52 5 752103 3.0836114465823030e+05 1.8664163094967566e+05 1.8420617211208733e-14 1.6549573758619785e+05 3.2770570063638256e+05 6.0759379069394763e+03 -999 2.92471413e-01 3.758408337e-01 -1.18808312e-01
 53 5 752103 2.7237707954023010e+05 1.6835183919516089e+05 1.8134718983487841e-14 1.4976484126780927e+05 2.7939706291215791e+05 5.6611334376570430e+03 -999 2.92633703e-01 3.727992560e-01 -1.18850751e-01
 54 5 752103 2.8049249987083831e+05 1.6445319751864224e+05 1.7940189123154075e-14 1.4165378124060211e+05 2.8682347570384655e+05 5.3075605388528820e+03 -999 2.92787890e-01 3.699712497e-01 -1.18892115e-01
 55 5 752103 2.9891478853472293e+05 1.7124862964459389e+05 1.7838954404486137e-14 1.3802535602879207e+05 3.1234290396003576e+05 4.9930712806396077e+03 -999 2.92925726e-01 3.674819836e-01 -1.18930260e-01
 56 5 752103 2.5723796039451851e+05 1.5306141139344289e+05 1.7646264094600616e-14 1.2681028887694617e+05 2.7368548791984108e+05 4.5786616025687999e+03 -999 2.93041669e-01 3.652398837e-01 -1.18961570e-01
 57 5 752103 2.1049546154043911e+05 1.3620253796120823e+05 1.7411418336855574e-14 1.1418328061540757e+05 2.2458297154060271e+05 4.2159019715440763e+03 -999 2.93181330e-01 3.625885455e-01 -1.19000084e-01
 58 5 752103 1.8183377295730161e+05 1.2284834641694213e+05 1.7156888788456357e-14 1.0240830738410246e+05 1.8905744221867685e+05 3.8895911926792814e+03 -999 2.93344766e-01 3.595476441e-01 -1.19046345e-01
 59 5 752103 1.7975962647224905e+05 1.1761034439052326e+05 1.6974065174367725e-14 9.4975508995141048e+04 1.8492700852705163e+05 3.6107241991848055e+03 -999 2.93505093e-01 3.566224116e-01 -1.19093429e-01
 60 5 752103 1.8411980261043776e+05 1.1678525236869519e+05 1.6883118171800346e-14 9.0392111035468581e+04 1.9147584028130723e+05 3.3730226426207082e+03 -999 2.93650687e-01 3.540013981e-01 -1.19138334e-01
 61 5 752103 1.5967446042355278e+05 1.0740296995836095e+05 1.6699551155944526e-14 8.3635053481490992e+04 1.6887226789701302e+05 3.0573169218386229e+03 -999 2.93767222e-01 3.517642297e-01 -1.19173756e-01
 62 5 752103 1.3100246369107369e+05 9.7978097385783301e+04 1.6464598739885548e-14 7.5738951398622681e+04 1.3952844582193074e+05 2.7842047312120917e+03 -999 2.93910259e-01 3.490616356e-01 -1.19217982e-01
 63 5 752103 1.1025396590698318e+05 8.9578754744139791e+04 1.6193510848808579e-14 6.7798971630794491e+04 1.1549813053568912e+05 2.5437602403821479e+03 -999 2.94081035e-01 3.458903937e-01 -1.19272129e-01
 64 5 752103 1.0368687692191683e+05 8.4456650275048203e+04 1.5972981565358442e-14 6.2023815341157693e+04 1.0728792315649785e+05 2.3420408715544982e+03 -999 2.94250714e-01 3.427885426e-01 -1.19328261e-01
 65 5 752103 1.0083569094769884e+05 8.1151480274214016e+04 1.5824228215739695e-14 5.7886751702251800e+04 1.0442410461610858e+05 2.1713645639885153e+03 -999 2.94405254e-01 3.399860055e-01 -1.19382651e-01
 66 5 752103 8.8097987283485971e+04 7.6356942919535650e+04 1.5633815101907450e-14 5.3458097683370761e+04 9.2385720862376809e+04 1.9482021741935052e+03 -999 2.94524718e-01 3.376138120e-01 -1.19422062e-01
 67 5 752103 7.2882327388548758e+04 7.1184421944496746e+04 1.5397107959396814e-14 4.8223439150025872e+04 7.6786493769543566e+04 1.7612217822314012e+03 -999 2.94671169e-01 3.347212886e-01 -1.19470730e-01
 68 5 752103 6.0312764674406681e+04 6.5996813582281757e+04 1.5102150369037299e-14 4.2576039008538348e+04 6.2700239734698633e+04 1.6039637465622732e+03 -999 2.94847522e-01 3.312498517e-01 -1.19530377e-01
 69 5 752103 5.3932922012701543e+04 6.1959225534170429e+04 1.4843503318533277e-14 3.7947830616537474e+04 5.5361303678346347e+04 1.4760194649758525e+03 -999 2.95021769e-01 3.278073153e-01 -1.19591913e-01
 70 5 752103 4.9707905046852065e+04 5.8781930751626191e+04 1.4643723587254532e-14 3.4358777129855727e+04 5.0730026414655986e+04 1.3720487211179864e+03 -999 2.95178935e-01 3.246538614e-01 -1.19651680e-01
 71 5 752103 4.3601775840522016e+04 5.5711794462451900e+04 1.4426495896945844e-14 3.1331838731721735e+04 4.4742062734215608e+04 1.2359425312158376e+03 -999 2.95287701e-01 3.218362735e-01 -1.19683136e-01
 72 5 752103 3.6439256656841193e+04 5.2232345570344398e+04 1.4161509126572244e-14 2.7836561284189695e+04 3.7339053073077783e+04 1.1343557147558822e+03 -999 2.95416872e-01 3.183205330e-01 -1.19718074e-01
 73 5 752103 3.0136467180967058e+04 4.8525751613232394e+04 1.3839364448635877e-14 2.4124272334656231e+04 3.0533162564480437e+04 1.0996648840938508e+03 -999 2.95564468e-01 3.140070391e-01 -1.19754714e-01
 74 5 752103 2.6241527876645938e+04 4.5403181343760916e+04 1.3522315940254561e-14 2.1135387554540634e+04 2.6424177243628437e+04 1.0924307195562210e+03 -999 2.95697739e-01 3.096696711e-01 -1.19785177e-01
 75 5 752103 2.3630584874897580e+04 4.2888036651716902e+04 1.3255717105489476e-14 1.8922827357567519e+04 2.3819878179018138e+04 1.1210399066028556e+03 -999 2.95807217e-01 3.055797064e-01 -1.19809488e-01
 76 5 752103 2.0826255566278498e+04 4.0471353400381355e+04 1.2998306979752815e-14 1.7110793998278645e+04 2.1268058102385403e+04 1.1987470165739205e+03 -999 2.95842797e-01 3.012427936e-01 -1.19758917e-01
 77 5 752103 1.8010735695700016e+04 3.7753974230885251e+04 1.2674073333571752e-14 1.5328545265334693e+04 1.8756895709657943e+04 1.4430160883922060e+03 -999 2.95889358e-01 2.955463462e-01 -1.19679383e-01
 78 5 752103 1.6207152689152992e+04 3.5024629960257196e+04 1.2308627739012825e-14 1.4000023143392707e+04 1.7353388056932694e+04 2.0342678718411325e+03 -999 2.95965493e-01 2.883616704e-01 -1.19571315e-01
 79 5 752103 1.5761544379013638e+04 3.2919035190204588e+04 1.1982796953426134e-14 1.3452711634438234e+04 1.7319634124202130e+04 2.9633033078600197e+03 -999 2.96087756e-01 2.809860292e-01 -1.19471875e-01
 80 5 752103 1.5905276963162029e+04 3.1355248847048111e+04 1.1715712159820602e-14 1.3305252759337880e+04 1.7817476812140783e+04 4.7944643931506289e+03 -999 2.96272141e-01 2.736690221e-01 -1.19407937e-01
 81 5 752103 1.5236241155392125e+04 2.8947470737943066e+04 1.1351274420466764e-14 1.2255909534623977e+04 1.7460846999133024e+04 1.0279737768621664e+04 -999 2.96715447e-01 2.634768664e-01 -1.19394159e-01
 82 5 752103 1.5248389973419818e+04 2.6755035411925168e+04 1.1114436712257528e-14 1.1604817046528580e+04 1.7675912047386566e+04 3.0689339785168759e+04 -999 2.97556739e-01 2.488936379e-01 -1.19577626e-01
 83 5 752103 1.5899425474614443e+04 2.6444326604116566e+04 1.1020455707349694e-14 1.1566839852236108e+04 1.8310020194893419e+04 5.4834969786183159e+04 -999 2.98716555e-01 2.316200680e-01 -1.20205113e-01
 84 5 752103 1.6590863563701241e+04 2.7424224643896850e+04 1.0975165090763869e-14 1.1784565520695285e+04 1.8924242736867025e+04 1.2705985669643742e+05 -999 2.99748689e-01 2.142050978e-01 -1.21368394e-01
 85 5 752103 1.7545432542450046e+04 3.3273601593863568e+04 1.0906846494887620e-14 1.2269852858986729e+04 2.2778604196710166e+04 1.7446480847218068e+05 -999 3.00264328e-01 1.959794571e-01 -1.23100923e-01
 86 5 752103 1.5280518412193182e+04 2.2113000651926810e+04 7.1119784190487358e-13 1.0866807382352641e+04 1.6595211362758968e+04 3.6939018835159391e+05 -999 2.99741777e-01 1.664923279e-01 -1.26740231e-01
 87 5 752103 1.3675973337122086e+04 2.2435775389726150e+04 1.0992369052875591e-12 9.9629402078207040e+03 1.5021912211308001e+04 3.8423493898788042e+05 -999 2.96667960e-01 1.426387376e-01 -1.29760991e-01
 88 5 752103 1.3222068178764488e+04 3.2248788051283471e+04 1.1159819763825334e-12 9.4083282054475967e+03 1.5276038271987281e+04 4.0881671047956008e+05 -999 2.95705735e-01 1.388261030e-01 -1.30027751e-01
 89 5 752103 1.3051074064220797e+04 3.2823592027711042e+04 1.1194596442639691e-12 9.1952213939390585e+03 1.4289609446117900e+04 1.4030391004396850e+05 -999 2.95332524e-01 1.374764606e-01 -1.30094728e-01
 90 5 752103 1.2917125171054857e+04 3.3108005609161235e+04 1.1215743762286580e-12 9.0208587014663244e+03 1.3986375805614305e+04 5.9490961530178218e+04 -999 2.95029302e-01 1.363816808e-01 -1.30142888e-01
 91 5 752103 1.1241301820142971e+04 2.0354832076716350e+04 4.8006910071979661e-12 7.2149159138080086e+03 1.1600896910438412e+04 2.7204307339530688e+05 -999 2.91988490e-01 1.251161070e-01 -1.30355950e-01
 92 5 752103 1.0089885955760803e+04 1.7003094084702272e+04 6.4037421278382170e-12 6.2041797478072185e+03 1.0261569494154861e+04 1.5633414513744740e+05 -999 2.90751667e-01 1.169309448e-01 -1.30371515e-01
 93 5 752103 9.5232040893757821e+03 1.5630429309673520e+04 7.4478433061764120e-12 5.5848189110295089e+03 9.6026483865730715e+03 4.1461352215059916e+04 -999 2.91149737e-01 1.126660289e-01 -1.30485249e-01
 94 5 752103 9.2240043110994120e+03 1.4635945062490995e+04 8.2525311087437979e-12 5.2230527631057612e+03 9.2434373815099425e+03 2.4847645116523610e+04 -999 2.92018040e-01 1.097857780e-01 -1.30666267e-01
 95 5 752103 9.2616673399799456e+03 1.3820746580276844e+04 8.8226545243152430e-12 4.9985842911365989e+03 9.3377068365820505e+03 2.1090558582023834e+04 -999 2.93242780e-01 1.072812440e-01 -1.30921029e-01
 96 5 752103 7.1462958169056219e+03 1.1063547700079238e+04 1.8229382057680516e-11 4.1388702069042029e+03 7.0910091902331787e+03 7.7491250951064852e+04 -999 3.04277898e-01 9.974359280e-02 -1.34110679e-01
 97 5 752103 6.3455716585472037e+03 9.9267857379739398e+03 2.3419242334781840e-11 4.1555899871235551e+03 6.3064631879560575e+03 9.9525414229905538e+04 -999 3.30452875e-01 8.872163860e-02 -1.41740728e-01
 98 5 752103 6.7781200984042707e+03 1.0254030549340092e+04 1.9618942412162608e-11 4.0953521146855674e+03 7.0135236267540813e+03 1.1479651536293246e+05 -999 3.62885427e-01 8.202758486e-02 -1.51372311e-01
 99 5 752103 6.7735726355457200e+03 9.3125947068801488e+03 1.8173500082665129e-11 3.6061113932884928e+03 7.4542706136786528e+03 9.8538101872559171e+04 -999 3.89650962e-01 7.865099186e-02 -1.59494785e-01
 100 5 752103 5.8201274864622555e+03 7.3984795587747631e+03 1.7693229146744670e-11 3.0106409250604356e+03 6.6281198700189825e+03 4.0128517346025750e+04 -999 4.10352558e-01 7.666330421e-02 -1.65552604e-01
 101 5 752103 3.6920499245646497e+03 4.8408233728527575e+03 5.2117882327604050e-11 2.3083893347153680e+03 3.9896432214641118e+03 7.0750695741305433e+04 -999 4.46511852e-01 7.354157107e-02 -1.75318706e-01
 102 5 752103 3.4407675503351234e+03 4.7094662721090999e+03 6.9139327310304489e-11 2.5087932921578431e+03 3.4206258096459896e+03 7.5544325120906578e+04 -999 4.90305080e-01 7.045998177e-02 -1.85834567e-01
 103 5 752103 3.2990564335912277e+03 4.3233675547696912e+03 5.5456515251077485e-11 2.0450617639353991e+03 3.1665836719129652e+03 1.0129608008451227e+05 -999 5.39761995e-01 6.775625279e-02 -1.95528809e-01
 104 5 752103 3.3289589980232940e+03 4.2699931797098779e+03 1.0835382758554572e-10 1.9896499226305918e+03 3.1956250474518470e+03 8.9381545230323114e+04 -999 5.86675192e-01 6.593093780e-02 -2.02374725e-01
 105 5 752103 3.2828598896571480e+03 4.2763541578314735e+03 2.2536247297243445e-10 1.5917664026813193e+03 3.1795373540013270e+03 3.0750463690959044e+04 -999 6.15230834e-01 6.544282352e-02 -2.05460872e-01
 106 5 752103 2.8597106161313336e+03 3.5537696127538138e+03 9.2930739548789917e-11 1.5066340395364725e+03 2.9030946185504986e+03 2.5793834257876515e+04 -999 6.46591523e-01 6.477140611e-02 -2.07577094e-01
 107 5 752103 2.7579465192794501e+03 3.2607024411151056e+03 4.2134845795794801e-11 1.4570363472682036e+03 2.8415229484696461e+03 2.0903343881435714e+04 -999 6.75899134e-01 6.460890192e-02 -2.08622453e-01
 108 5 752103 2.6955293652164050e+03 3.0816959142831565e+03 2.9380874758166550e-11 1.3443241434025556e+03 2.7501785457160408e+03 1.5049210341289223e+04 -999 6.98527211e-01 6.496129152e-02 -2.09211236e-01
 109 5 752103 2.6429706228097816e+03 2.9296286122114138e+03 2.5370193518401606e-11 1.2326176609574707e+03 2.6724180766670797e+03 1.2444736911074935e+04 -999 7.13044313e-01 6.531502123e-02 -2.09302054e-01
 110 5 752103 2.5898649791758348e+03 2.7988087626865631e+03 2.2552147457636764e-11 1.1350731965442444e+03 2.6039442830547359e+03 1.1398565931336972e+04 -999 7.25655743e-01 6.565665719e-02 -2.09139734e-01
 111 5 752103 2.3885204221307822e+03 2.7073460204768544e+03 1.4269011331935129e-11 1.0540827812725370e+03 2.4213309252117315e+03 1.1730253539683550e+04 -999 7.45406892e-01 6.614128472e-02 -2.07893725e-01
 112 5 752103 2.2645938363399960e+03 2.5934748876960052e+03 1.1384687413381534e-11 9.8622689504673667e+02 2.3050637853095109e+03 1.0744099679596360e+04 -999 7.63232809e-01 6.667193133e-02 -2.06214789e-01
 113 5 752103 2.1659496294284700e+03 2.4510767985576231e+03 9.9959671505779353e-12 8.8654230784532854e+02 2.1969670034302389e+03 1.0276124323723623e+04 -999 7.82421307e-01 6.733330563e-02 -2.04028602e-01
 114 5 752103 2.1016107984477844e+03 2.3430347133208074e+03 9.1332109984787686e-12 8.5625367951169926e+02 2.1097334161832882e+03 9.6227545805314876e+03 -999 7.98816399e-01 6.801554887e-02 -2.02172926e-01
 115 5 752103 2.0463459812233750e+03 2.2448143723365447e+03 8.4986918467837157e-12 8.2644900770147797e+02 2.0321035245946828e+03 8.9246021707951295e+03 -999 8.10681545e-01 6.853728715e-02 -2.00799252e-01
 116 5 752103 1.9655063390035036e+03 2.1814955466843135e+03 6.2258973223445685e-12 8.2226708429080225e+02 1.9294787954597034e+03 8.9549278546768928e+03 -999 8.22844852e-01 6.908414507e-02 -1.99431067e-01
 117 5 752103 1.8895926825880192e+03 2.0789009817112424e+03 4.9679867150993390e-12 8.1069146416271508e+02 1.8222616814506907e+03 9.2679946901185831e+03 -999 8.38943011e-01 6.978700823e-02 -1.97649836e-01
 118 5 752103 1.8250486163436992e+03 1.9491531855794635e+03 4.6109253777365681e-12 7.7340940039009320e+02 1.7221592677546298e+03 9.5068613125972533e+03 -999 8.57754894e-01 7.049829170e-02 -1.95631399e-01
 119 5 752103 1.7801760852428670e+03 1.8859109742237670e+03 4.4631897825649362e-12 7.3366979916857997e+02 1.6631540877245573e+03 8.7084871228699358e+03 -999 8.67511812e-01 7.074186477e-02 -1.94646094e-01
 120 5 752103 1.7361495972052053e+03 1.8325634187043020e+03 4.3140752393948816e-12 6.9580397832134497e+02 1.6059271579118470e+03 8.9233678474135122e+03 -999 8.77826681e-01 7.089181878e-02 -1.93627993e-01
 121 5 752103 1.6688314538267998e+03 1.7924728376407440e+03 3.2838382661389199e-12 6.6053681808274303e+02 1.5330678186562177e+03 9.2726603125624060e+03 -999 8.88687098e-01 7.091694593e-02 -1.92727394e-01
 122 5 752103 1.6227945393464595e+03 1.7556363990730526e+03 3.0892401825617430e-12 6.6958391311059006e+02 1.4775235318264845e+03 9.3222084295536497e+03 -999 9.00218581e-01 7.071653217e-02 -1.91643625e-01
 123 5 752103 1.5909612501374575e+03 1.7167156966268235e+03 3.1912999506530065e-12 6.5777207003091121e+02 1.4336669664488586e+03 9.3615702225377954e+03 -999 9.11163185e-01 7.031293742e-02 -1.90655592e-01
 124 5 752103 1.5905850033043671e+03 1.7075101192903751e+03 3.3889388365378496e-12 6.6575565083601441e+02 1.4213502687383914e+03 9.3272312137071949e+03 -999 9.23076121e-01 6.967400552e-02 -1.89699270e-01
 125 5 752103 1.5738946443495820e+03 1.6770800443079620e+03 3.4648695915551707e-12 6.5793596999211729e+02 1.3997200109434739e+03 8.8757757341653250e+03 -999 9.29165484e-01 6.925885437e-02 -1.89313477e-01
 126 5 752103 1.5126527786497991e+03 1.6698627962037192e+03 2.8478675842197453e-12 6.4538137724410342e+02 1.3401541167550163e+03 9.2861451982794442e+03 -999 9.35846555e-01 6.876574359e-02 -1.89003269e-01
 127 5 752103 1.4827997541116251e+03 1.6726084435020623e+03 2.7334543253776317e-12 6.7396492663804179e+02 1.3090412036405432e+03 9.4150206966274036e+03 -999 9.44111177e-01 6.805320999e-02 -1.88543794e-01
 128 5 752103 1.4754823660397144e+03 1.6630925292775555e+03 2.9757685828540722e-12 6.8617180380592060e+02 1.3006434093864816e+03 9.4670412066193549e+03 -999 9.53178023e-01 6.719992691e-02 -1.88080739e-01
 129 5 752103 1.4736783446203392e+03 1.6567553563330505e+03 3.1424690600752593e-12 6.7758219304996419e+02 1.2968070192736448e+03 9.3956980366140724e+03 -999 9.61035714e-01 6.644090248e-02 -1.87786428e-01
 130 5 752103 1.4712890461184004e+03 1.6652404777207892e+03 3.2160587818785755e-12 6.6760742411082072e+02 1.2943087797954920e+03 9.3559687242205800e+03 -999 9.66892575e-01 6.587862428e-02 -1.87620768e-01
 131 5 752103 1.4206846572377231e+03 1.6887566759462918e+03 2.7175405301316557e-12 6.4403604164826857e+02 1.2478936738238592e+03 9.4133226570485313e+03 -999 9.72558818e-01 6.537957347e-02 -1.87585427e-01
 132 5 752103 1.4015126411743051e+03 1.7116656120318405e+03 2.6522536686829851e-12 6.4670146550079323e+02 1.2297490324409125e+03 9.6542320446314989e+03 -999 9.79766305e-01 6.469219629e-02 -1.87430883e-01
 133 5 752103 1.3958117987886637e+03 1.7019412186620930e+03 2.9240949758563108e-12 6.3196581766336294e+02 1.2263781269362057e+03 9.6326664588366220e+03 -999 9.86821736e-01 6.395909112e-02 -1.87124596e-01
 134 5 752103 1.4175591930470353e+03 1.6962246388877797e+03 3.2472898519350452e-12 5.9807574759027932e+02 1.2519320194536085e+03 9.7362595995145675e+03 -999 9.93569004e-01 6.327017882e-02 -1.86795977e-01
 135 5 752103 1.4426430161631345e+03 1.7128230339455952e+03 3.5337145943610873e-12 5.7936428890991385e+02 1.2773293250563822e+03 9.7786095377545662e+03 -999 9.97882711e-01 6.286984993e-02 -1.86617094e-01
 136 5 752103 1.3915460969602693e+03 1.7170809371562648e+03 3.2243657253941724e-12 5.7095419042052788e+02 1.2319029344154044e+03 9.8374710775328585e+03 -999 1.00145874e+00 6.260797431e-02 -1.86626502e-01
 137 5 752103 1.3600797614646308e+03 1.7243726737360289e+03 3.0410323931481655e-12 5.8211780096152768e+02 1.2059909860545072e+03 1.0329418091528343e+04 -999 1.00576452e+00 6.228440060e-02 -1.86574497e-01
 138 5 752103 1.3464532315316465e+03 1.7264173900673034e+03 3.0079488123943992e-12 5.9869677846625791e+02 1.1969125065732499e+03 1.0770323013502659e+04 -999 1.01076702e+00 6.188417936e-02 -1.86401254e-01
 139 5 752103 1.3661875462463977e+03 1.7317498549882355e+03 3.0903912344475432e-12 6.1163223299497929e+02 1.2157587297901507e+03 1.1122169919108965e+04 -999 1.01604257e+00 6.144477009e-02 -1.86107569e-01
 140 5 752103 1.3897212220203028e+03 1.7369897752955042e+03 3.1184119435315681e-12 6.2080634533448301e+02 1.2367360056736866e+03 1.1392860973612218e+04 -999 1.01953010e+00 6.115198771e-02 -1.85858493e-01
 141 5 752103 1.3715347223876688e+03 1.5885621114070582e+03 2.6581508709270217e-12 5.3395167210542684e+02 1.2122886334942286e+03 1.0850528689715798e+04 -999 1.02158257e+00 6.098560699e-02 -1.85729900e-01