TITLE = "005.02 ALPHA 3.00 GRIDLEVEL 4"

VARIABLES = "ITERATION"  "GRID_LEVEL"  "GRID_SIZE"  "CONTINUITY"  "MOMENTUMX"  "MOMENTUMY"  "MOMENTUMZ"  "ENERGY"  "TURB1"  "TURB2"  "CL_TOT"  "CD_TOT"  "CM_TOT"

DATASETAUXDATA ParticipantID   = "005"
DATASETAUXDATA SubmissionDate  = "10-31-2024"
DATASETAUXDATA Name            = "Jeffrey A. Housman"
DATASETAUXDATA Email           = "jeffrey.a.housman@nasa.gov"
DATASETAUXDATA Institution     = "NASA Ames Research Center"
DATASETAUXDATA SolverName      = "LAVA Curvilinear"
DATASETAUXDATA BasicAlgorithm  = "RANS"
DATASETAUXDATA TurbulenceModel = "SA-RC-comp-neg"
DATASETAUXDATA GridId          = "Multiblock"
DATASETAUXDATA Discretization  = "Finite difference"
DATASETAUXDATA Order           = "2"
DATASETAUXDATA DistanceCalc    = "Exact"
DATASETAUXDATA Notes           = " "

ZONE T = "005.02 - Alpha 3.00 - Grid Level 4"
AUXDATA Tstatic         = "271.0"
AUXDATA Deltat          = "-999"
AUXDATA GridFileName    = "ONERA-OAT15A_230mmChord_780mmSpan_upZ_2024_06_25-Structured_23mm_Level-4.x"
AUXDATA Misc            = " "
 0 4 430284 3.7388347670406103e+05 1.0568671387244284e+06 6.4510930346522240e-14 3.5126636800079595e+05 3.9051738026167837e+05 1.8146623980441540e+06 -999 1.26587218e-02 7.529940399e-01 -6.99238296e-03
 1 4 430284 5.4266351389958349e+05 8.0785729958303925e+05 5.5798973783993830e-14 2.7537605357242102e+05 5.2821134896234190e+05 1.1752402048328593e+06 -999 4.58730444e-02 7.032825782e-01 -2.13343379e-02
 2 4 430284 6.6341473103471776e+05 7.0006473336823308e+05 4.9256597633508789e-14 3.0381430357414816e+05 6.3668988352450531e+05 7.6404490031831851e+05 -999 8.48055738e-02 6.771740858e-01 -3.79963319e-02
 3 4 430284 7.7567793083350337e+05 6.3056031583435705e+05 4.4166936610620332e-14 3.5998372126004240e+05 7.4297322153498116e+05 4.9701485466688377e+05 -999 1.19828820e-01 6.622989446e-01 -5.32406300e-02
 4 4 430284 8.7827255460213847e+05 5.7975663736672036e+05 4.0148104758922257e-14 4.2867908046442393e+05 8.4911581781974493e+05 3.1759509634259401e+05 -999 1.50918274e-01 6.541090957e-01 -6.52637830e-02
 5 4 430284 9.8119054156149807e+05 5.8269966979390231e+05 3.6952769915038806e-14 5.0208737564626697e+05 9.6775634602754749e+05 2.0238109655728113e+05 -999 1.74728197e-01 6.485513858e-01 -7.42853445e-02
 6 4 430284 8.9965683932275360e+05 6.2349186730935564e+05 3.4498719053676452e-14 5.3082621760396601e+05 8.8998110993241507e+05 1.0158950435629787e+05 -999 1.91118034e-01 6.370241624e-01 -8.11780012e-02
 7 4 430284 9.2263181114060583e+05 6.3863734169693338e+05 3.2270020712333585e-14 5.5334961924488365e+05 9.0877170770420285e+05 8.0257841059906961e+04 -999 2.04620569e-01 6.222850669e-01 -8.73533621e-02
 8 4 430284 9.8302555720316852e+05 6.3202384005010652e+05 3.0627490995356981e-14 5.6529237455361686e+05 9.8929934218458715e+05 6.8713332578776754e+04 -999 2.15241449e-01 6.057919332e-01 -9.19842258e-02
 9 4 430284 1.1850337112874298e+06 6.8746982229408168e+05 2.9211047107224647e-14 6.2288170761786215e+05 1.2321636589487002e+06 6.1510900143467159e+04 -999 2.26065515e-01 5.855665260e-01 -9.62362008e-02
 10 4 430284 1.1111330330139752e+06 5.8288685978956800e+05 2.8416495605736038e-14 5.9264144613263139e+05 1.1499369939064467e+06 5.5395098598816723e+04 -999 2.31743779e-01 5.737305853e-01 -9.83926687e-02
 11 4 430284 1.0209841100958781e+06 5.6890328982148739e+05 2.7460528472480600e-14 5.7901599009239720e+05 1.0404752831150977e+06 4.9910511215392376e+04 -999 2.38294130e-01 5.592141885e-01 -1.00969487e-01
 12 4 430284 9.4997280006900907e+05 5.7360622735626774e+05 2.6699169174759733e-14 5.5635766891009570e+05 9.6163930144513666e+05 4.5581200804507105e+04 -999 2.43472847e-01 5.467667053e-01 -1.02942555e-01
 13 4 430284 1.0510660388848244e+06 5.8390338847688981e+05 2.6137493623111841e-14 5.7787375102324609e+05 1.0816023539625360e+06 4.2369310336433089e+04 -999 2.48566388e-01 5.332248688e-01 -1.04889719e-01
 14 4 430284 9.8155556082163204e+05 5.1476214457463683e+05 2.5717267947838159e-14 5.4257880976865895e+05 1.0062081730892947e+06 3.9522758920859014e+04 -999 2.51199293e-01 5.252505205e-01 -1.05953581e-01
 15 4 430284 1.1543731381743364e+06 6.5733466271857102e+05 2.5315151070833151e-14 5.8851454462576716e+05 1.2300140515408672e+06 3.7207142938746496e+04 -999 2.54111171e-01 5.157622731e-01 -1.07236540e-01
 16 4 430284 9.7557488229524228e+05 5.8172368279662426e+05 2.4872699237450211e-14 5.3037927453427284e+05 1.0340100109262103e+06 3.4090167621022425e+04 -999 2.55916518e-01 5.088934286e-01 -1.08092069e-01
 17 4 430284 8.6646063038002735e+05 4.8299035282710067e+05 2.4361110637870087e-14 4.9878838508899463e+05 8.8036384999273450e+05 3.1603890000612577e+04 -999 2.58067235e-01 4.999447335e-01 -1.09095334e-01
 18 4 430284 8.2436217667106260e+05 4.7354916984426818e+05 2.3943414862953108e-14 4.7762406810756063e+05 8.3346202434841078e+05 2.9513215642249779e+04 -999 2.59592630e-01 4.927263943e-01 -1.09755569e-01
 19 4 430284 9.5921169322515267e+05 5.1370344758552127e+05 2.3585840326958670e-14 4.9323220735367708e+05 1.0077102471093165e+06 2.7805040732717374e+04 -999 2.61043121e-01 4.851786158e-01 -1.10313730e-01
 20 4 430284 8.7966491814123711e+05 4.1891283772945777e+05 2.3391862831584445e-14 4.6702331121315539e+05 9.1228468596558215e+05 2.6246126450280692e+04 -999 2.61904120e-01 4.802600115e-01 -1.10597630e-01
 21 4 430284 8.0205833596716158e+05 4.2602824985866173e+05 2.3069090769526419e-14 4.4605277972268645e+05 8.2958269101928291e+05 2.4267471943908073e+04 -999 2.62742600e-01 4.746568440e-01 -1.10852059e-01
 22 4 430284 7.2082553457600356e+05 4.1233951369592635e+05 2.2719089546247163e-14 4.1623343486746430e+05 7.3763334034056368e+05 2.2663242901275302e+04 -999 2.63587901e-01 4.685215506e-01 -1.11098362e-01
 23 4 430284 7.4295226218774228e+05 4.1254022426144086e+05 2.2411498317538275e-14 4.0914348847978760e+05 7.6083315063397714e+05 2.1341042135595730e+04 -999 2.64420459e-01 4.618133144e-01 -1.11338569e-01
 24 4 430284 7.4447360849301633e+05 3.7290300453468913e+05 2.2252013611865904e-14 4.0035591472364194e+05 7.6146091281634022e+05 2.0174545091163604e+04 -999 2.64991558e-01 4.566832903e-01 -1.11508773e-01
 25 4 430284 8.0884321608388249e+05 4.1388179931047675e+05 2.2122090501764285e-14 3.9971363673995167e+05 8.5470247107169183e+05 1.9105770106812004e+04 -999 2.65460257e-01 4.521803846e-01 -1.11655047e-01
 26 4 430284 6.8205317809915182e+05 3.6731852551061573e+05 2.1882563392461986e-14 3.6837723829235212e+05 7.1821862617811840e+05 1.7740579868025212e+04 -999 2.65859565e-01 4.475669819e-01 -1.11780669e-01
 27 4 430284 6.0143742356811441e+05 3.4770482700047636e+05 2.1651073836954142e-14 3.4458868301238335e+05 6.1701403503670928e+05 1.6633974780636672e+04 -999 2.66269259e-01 4.426329838e-01 -1.11913027e-01
 28 4 430284 6.1204783149847377e+05 3.3767958709198411e+05 2.1460088025575367e-14 3.3406967468963412e+05 6.2378152397867839e+05 1.5708856341949057e+04 -999 2.66702695e-01 4.372367731e-01 -1.12056380e-01
 29 4 430284 6.2583260090286331e+05 3.1728013045017200e+05 2.1322126088497209e-14 3.2742524849866383e+05 6.4370124111021357e+05 1.4902271948930036e+04 -999 2.67021432e-01 4.331685011e-01 -1.12163017e-01
 30 4 430284 6.8944323574406921e+05 3.6450206354620837e+05 2.1200097106151085e-14 3.2991347804869106e+05 7.3256466933493910e+05 1.4172645400684527e+04 -999 2.67301144e-01 4.295302529e-01 -1.12255479e-01
 31 4 430284 5.7821117678024282e+05 3.1823133385227341e+05 2.0972420947356722e-14 3.0179954123036197e+05 6.1479683216334507e+05 1.3177972245974732e+04 -999 2.67532772e-01 4.259590764e-01 -1.12326836e-01
 32 4 430284 4.9219829105475207e+05 2.8848902094510221e+05 2.0713712260450539e-14 2.7719492835991009e+05 5.0921468068466790e+05 1.2347765884319570e+04 -999 2.67797162e-01 4.218558332e-01 -1.12407564e-01
 33 4 430284 4.7736223073995602e+05 2.7502718411753257e+05 2.0479554220680979e-14 2.6217568347322661e+05 4.8495940732014424e+05 1.1645391249251010e+04 -999 2.68067289e-01 4.176320396e-01 -1.12489926e-01
 34 4 430284 5.3411969452566432e+05 2.8333984196853015e+05 2.0315609078207421e-14 2.6232219783842616e+05 5.5468401579730562e+05 1.1038434751183771e+04 -999 2.68319901e-01 4.136415872e-01 -1.12567245e-01
 35 4 430284 5.2976867667843262e+05 2.6190357135052601e+05 2.0221759070819057e-14 2.5671851539831856e+05 5.5419276121105428e+05 1.0488758300407982e+04 -999 2.68493569e-01 4.108627293e-01 -1.12620709e-01
 36 4 430284 4.5882833598575374e+05 2.5226723745389192e+05 2.0009540817487139e-14 2.3686827979668012e+05 4.8427849470358837e+05 9.7824487688385489e+03 -999 2.68662229e-01 4.077357819e-01 -1.12670137e-01
 37 4 430284 3.8811955799247097e+05 2.3071688557839359e+05 1.9765720600963030e-14 2.1530281628300672e+05 4.0340789669466944e+05 9.1876954379021063e+03 -999 2.68850887e-01 4.042913763e-01 -1.12726257e-01
 38 4 430284 3.6931204665923479e+05 2.1447270910067047e+05 1.9524969599461984e-14 2.0083286029565107e+05 3.7369501531295729e+05 8.6568701536942826e+03 -999 2.69060606e-01 4.005137502e-01 -1.12789455e-01
 39 4 430284 3.9976403692059108e+05 2.1417996109317936e+05 1.9359269955613016e-14 1.9735620589408226e+05 4.1215649908107711e+05 8.1924132646446305e+03 -999 2.69243988e-01 3.972488581e-01 -1.12845353e-01
 40 4 430284 4.2797315934154391e+05 2.3304645101428934e+05 1.9248260593877169e-14 1.9662268587624235e+05 4.5362239496420824e+05 7.7796446003143965e+03 -999 2.69389355e-01 3.946797862e-01 -1.12890111e-01
 41 4 430284 3.6291352908255829e+05 2.0385973000015903e+05 1.9029409036225018e-14 1.7999398128467868e+05 3.8753629544904723e+05 7.2578783378655335e+03 -999 2.69520092e-01 3.920669416e-01 -1.12928442e-01
 42 4 430284 2.9897268823740189e+05 1.8446065954643511e+05 1.8769789579839349e-14 1.6285233140193656e+05 3.1370944463163422e+05 6.8124015334841197e+03 -999 2.69674884e-01 3.890467924e-01 -1.12974464e-01
 43 4 430284 2.7384565489964141e+05 1.6844756619229866e+05 1.8490552469101186e-14 1.4987070071118372e+05 2.7716990197186498e+05 6.4156158918260635e+03 -999 2.69844640e-01 3.858111329e-01 -1.13025591e-01
 44 4 430284 2.9478544375060801e+05 1.6981122711135849e+05 1.8266423849031534e-14 1.4531382155839948e+05 3.0228058782660647e+05 6.0584011568692049e+03 -999 2.70001704e-01 3.828762683e-01 -1.13073430e-01
 45 4 430284 3.2623344114747609e+05 1.8158730831105090e+05 1.8094959919086595e-14 1.4568538366942378e+05 3.4267745452887518e+05 5.7399703359188197e+03 -999 2.70142116e-01 3.802867194e-01 -1.13116617e-01
 46 4 430284 2.7589367965443589e+05 1.6304268786032614e+05 1.7883731768754821e-14 1.3318268285477415e+05 2.9556795085841557e+05 5.3250120048855879e+03 -999 2.70254053e-01 3.779894631e-01 -1.13149505e-01
 47 4 430284 2.2079269280600632e+05 1.4350053158638952e+05 1.7618007692779882e-14 1.1868180952311087e+05 2.3460987457101623e+05 4.9700379282549575e+03 -999 2.70391882e-01 3.752439379e-01 -1.13190325e-01
 48 4 430284 1.9367730118306220e+05 1.2953973109882929e+05 1.7330697148134678e-14 1.0686036828293813e+05 1.9725961359903085e+05 4.6624590534216495e+03 -999 2.70547876e-01 3.722117172e-01 -1.13237115e-01
 49 4 430284 2.0277562287369461e+05 1.2829935288920529e+05 1.7092308513583176e-14 1.0126142002786935e+05 2.0769567925506723e+05 4.3601929942800707e+03 -999 2.70695015e-01 3.694155819e-01 -1.13281816e-01
 50 4 430284 2.2008631187221175e+05 1.3675981233682603e+05 1.6911240862192757e-14 9.9257592383077557e+04 2.3243574091673590e+05 4.1031570488436246e+03 -999 2.70822037e-01 3.670402402e-01 -1.13320949e-01
 51 4 430284 1.8652409714666710e+05 1.1983431054472110e+05 1.6709018527682141e-14 9.0528753269076275e+04 2.0049765409735325e+05 3.7628051543825545e+03 -999 2.70930783e-01 3.648190714e-01 -1.13353319e-01
 52 4 430284 1.4984936115563425e+05 1.0607821991303872e+05 1.6465995082958935e-14 8.0937951531227620e+04 1.6116642333438757e+05 3.4670313658031146e+03 -999 2.71060776e-01 3.622193063e-01 -1.13392579e-01
 53 4 430284 1.2744884087197822e+05 9.5879334226961058e+04 1.6178718361648723e-14 7.2126157988075836e+04 1.3276515254337774e+05 3.2019104874336304e+03 -999 2.71212867e-01 3.592437687e-01 -1.13439256e-01
 54 4 430284 1.2653122337928583e+05 9.2242132984610158e+04 1.5929514863359639e-14 6.6862822511201768e+04 1.3043462738325082e+05 2.9694272510694263e+03 -999 2.71360383e-01 3.564174110e-01 -1.13485525e-01
 55 4 430284 1.3096728979062443e+05 9.2417713049748243e+04 1.5730644073036296e-14 6.3879196124597765e+04 1.3718273052694753e+05 2.7717020468074275e+03 -999 2.71491941e-01 3.539319802e-01 -1.13528050e-01
 56 4 430284 1.1277250055514423e+05 8.4971313619557521e+04 1.5539669000201799e-14 5.8968466344753033e+04 1.2035156069164601e+05 2.4974230294309923e+03 -999 2.71599649e-01 3.517135920e-01 -1.13562809e-01
 57 4 430284 9.1405237420757097e+04 7.7625634268861439e+04 1.5301778514424300e-14 5.3247955326300980e+04 9.8409975186927069e+04 2.2568280733982924e+03 -999 2.71732228e-01 3.490255531e-01 -1.13606383e-01
 58 4 430284 7.5637018518392113e+04 7.1084517525442890e+04 1.5003245399322746e-14 4.7539467904404744e+04 7.9957343597142652e+04 2.0507130427539760e+03 -999 2.71890380e-01 3.458729910e-01 -1.13659616e-01
 59 4 430284 7.0438523367064146e+04 6.7207132121005561e+04 1.4727016354270555e-14 4.3443911161042786e+04 7.3214186556923451e+04 1.8768476460004633e+03 -999 2.72049043e-01 3.427567481e-01 -1.13715072e-01
 60 4 430284 6.8387074896724167e+04 6.4778185216808961e+04 1.4500234821232422e-14 4.0611019111727233e+04 7.1081671286794008e+04 1.7299615802008020e+03 -999 2.72193329e-01 3.399414646e-01 -1.13768354e-01
 61 4 430284 5.9709289058937764e+04 6.1330135233811132e+04 1.4286929883879405e-14 3.7683765775817286e+04 6.2802515005475194e+04 1.5415519158070324e+03 -999 2.72304359e-01 3.374850457e-01 -1.13808868e-01
 62 4 430284 4.9484601499510522e+04 5.7584130350143067e+04 1.4009763762443421e-14 3.4238947638492391e+04 5.2206311976941397e+04 1.3826900642653134e+03 -999 2.72440030e-01 3.344800728e-01 -1.13858898e-01
 63 4 430284 4.0983820582393339e+04 5.3754428765600001e+04 1.3669469919841339e-14 3.0541306932252523e+04 4.2545239147023145e+04 1.2508873043062852e+03 -999 2.72602409e-01 3.308634874e-01 -1.13919769e-01
 64 4 430284 3.6559276313749433e+04 5.0698524672571308e+04 1.3343720852166730e-14 2.7517083032551120e+04 3.7353183463954541e+04 1.1438487283270072e+03 -999 2.72761237e-01 3.272656366e-01 -1.13981504e-01
 65 4 430284 3.3691504141868274e+04 4.8285999273392561e+04 1.3052643595330623e-14 2.5170628348504986e+04 3.4153808492930621e+04 1.0570786911474520e+03 -999 2.72903003e-01 3.239473425e-01 -1.14040230e-01
 66 4 430284 2.9927048179008918e+04 4.5981729416572169e+04 1.2801159813961054e-14 2.3231699698125489e+04 3.0383454435585474e+04 9.5340980141061220e+02 -999 2.72988708e-01 3.208787312e-01 -1.14068960e-01
 67 4 430284 2.5669365906643761e+04 4.3348290037643274e+04 1.2483979653061936e-14 2.0983709820655775e+04 2.5945741108956139e+04 8.7219167939343754e+02 -999 2.73084683e-01 3.170322320e-01 -1.14097992e-01
 68 4 430284 2.1890273872796093e+04 4.0475166153833692e+04 1.2092504793272431e-14 1.8402148181956207e+04 2.1966279961317767e+04 8.1871467172050848e+02 -999 2.73190973e-01 3.122585336e-01 -1.14119187e-01
 69 4 430284 1.9548482740506341e+04 3.8013604706791979e+04 1.1719756061457174e-14 1.6341510732094061e+04 1.9678542146030697e+04 8.0803053386839247e+02 -999 2.73281129e-01 3.074475882e-01 -1.14127340e-01
 70 4 430284 1.8041149595032424e+04 3.6005278947517661e+04 1.1415871705320873e-14 1.4827732793352970e+04 1.8386604974301408e+04 8.1216154069596598e+02 -999 2.73352259e-01 3.028802045e-01 -1.14125168e-01
 71 4 430284 1.6260729278585513e+04 3.3966658238012664e+04 1.1084698933271594e-14 1.3505869765133790e+04 1.6945629416078238e+04 8.4556905877191105e+02 -999 2.73371223e-01 2.977378497e-01 -1.14048927e-01
 72 4 430284 1.4691065126384185e+04 3.1672778896171247e+04 1.0695163246273451e-14 1.2307076446501136e+04 1.5781481316945463e+04 9.2519484386177578e+02 -999 2.73419211e-01 2.909189028e-01 -1.13938363e-01
 73 4 430284 1.3993007556569810e+04 2.9414270537804357e+04 1.0281883882942363e-14 1.1623322248896353e+04 1.5495051358614968e+04 1.1274639584079328e+03 -999 2.73540586e-01 2.824533985e-01 -1.13806029e-01
 74 4 430284 1.4157030546270742e+04 2.7657970975775097e+04 9.9652005755077387e-15 1.1553935056043038e+04 1.5973227429951576e+04 1.4849772811374196e+03 -999 2.73770864e-01 2.737719162e-01 -1.13706650e-01
 75 4 430284 1.4601901658205004e+04 2.6324924922474685e+04 9.7264409251479471e-15 1.1711851565460360e+04 1.6641824095435528e+04 1.9992061434328209e+03 -999 2.74128664e-01 2.651254453e-01 -1.13675612e-01
 76 4 430284 1.4278281831297325e+04 2.4271197228520290e+04 9.7742227959658276e-15 1.0849662605913340e+04 1.6505155214579143e+04 3.7441780432330938e+03 -999 2.74894902e-01 2.529859224e-01 -1.13792419e-01
 77 4 430284 1.4386592061067871e+04 2.2578197655094737e+04 1.3196833938525779e-14 1.0289860268581249e+04 1.6622454997506429e+04 1.0620759947483421e+04 -999 2.76329242e-01 2.359024652e-01 -1.14268015e-01
 78 4 430284 1.4628620285098514e+04 2.2362718963455231e+04 2.4660921345386434e-14 1.0177755779111458e+04 1.6658518326197522e+04 2.3995183561142607e+04 -999 2.78241703e-01 2.171896795e-01 -1.15363375e-01
 79 4 430284 1.4781892801083546e+04 2.2965418835993780e+04 4.5965211361171221e-14 1.0277166594243128e+04 1.6511283178694728e+04 5.0828480974896505e+04 -999 2.80054523e-01 1.986378963e-01 -1.17143837e-01
 80 4 430284 1.5197834928568031e+04 2.6003943962656012e+04 7.9294813114667351e-14 1.0494210289308065e+04 1.7542605835851449e+04 1.1510298591500631e+05 -999 2.81175794e-01 1.797789792e-01 -1.19588109e-01
 81 4 430284 1.2729594052353132e+04 1.8743412001010965e+04 6.5805906192892386e-14 9.5403192389615069e+03 1.3580671891737498e+04 2.0298711943854354e+05 -999 2.80905699e-01 1.542059703e-01 -1.23644105e-01
 82 4 430284 1.1081419229692034e+04 1.8315649195662252e+04 5.4169779984701544e-14 8.7149813490011984e+03 1.1905447309328310e+04 2.1456529358409421e+05 -999 2.77967694e-01 1.343190718e-01 -1.26723103e-01
 83 4 430284 1.0626690182181039e+04 2.7127972666900318e+04 5.1242626354698481e-14 8.1978706183006743e+03 1.2680749229015437e+04 1.3058118491503547e+05 -999 2.76671415e-01 1.304009168e-01 -1.27044484e-01
 84 4 430284 1.0454964807444940e+04 2.8371064437047553e+04 5.0150764899509017e-14 7.9247908335376251e+03 1.3099856947657992e+04 7.5174307717357195e+04 -999 2.76141714e-01 1.289707856e-01 -1.27118554e-01
 85 4 430284 1.0332133690440514e+04 2.7728736775151265e+04 4.9306443083729933e-14 7.7575488313198848e+03 1.3120283986922224e+04 3.8378837871258744e+04 -999 2.75740462e-01 1.279104947e-01 -1.27162963e-01
 86 4 430284 8.9783787206810339e+03 1.8063774617332336e+04 1.5876554686759121e-13 6.2606008018156681e+03 9.5643231146064736e+03 1.4362548330755800e+05 -999 2.72040997e-01 1.188238271e-01 -1.27204507e-01
 87 4 430284 8.1167110760994365e+03 1.5303870287785505e+04 1.7775003380078196e-13 5.4546307505268351e+03 8.2909618241768112e+03 7.3140135907279546e+04 -999 2.69964536e-01 1.127447127e-01 -1.26995093e-01
 88 4 430284 7.5798724195367731e+03 1.3577400517932554e+04 1.6170546797756506e-13 4.9082039213101689e+03 7.5814297224835254e+03 4.0356193436137211e+04 -999 2.69254992e-01 1.081571403e-01 -1.26840046e-01
 89 4 430284 7.2964289718793725e+03 1.2746343209416325e+04 1.4630341005491368e-13 4.6949084009053386e+03 7.2521209114674375e+03 1.5947190338685128e+04 -999 2.69505284e-01 1.059211627e-01 -1.26845185e-01
 90 4 430284 7.3416505809098626e+03 1.2031141753987069e+04 1.3078871421090486e-13 4.5618289151568197e+03 7.2600814431585095e+03 1.4197649185153719e+04 -999 2.70096528e-01 1.039020603e-01 -1.26926111e-01
 91 4 430284 5.8394081503001389e+03 9.4240662957775930e+03 1.0600478917057826e-13 3.8449056341286750e+03 5.6954543922093353e+03 4.8977218728768203e+04 -999 2.77646097e-01 9.740494412e-02 -1.28807258e-01
 92 4 430284 5.4513770486868852e+03 8.3653357390435685e+03 8.0121586791153697e-14 3.7384836402546748e+03 5.2916525766221357e+03 7.3516979101616598e+04 -999 2.97191446e-01 8.714115354e-02 -1.33941204e-01
 93 4 430284 5.7682076043537591e+03 9.7180318956399515e+03 6.4869447973925980e-14 3.4865856248813398e+03 5.6925129625193058e+03 6.2492365428966601e+04 -999 3.22517749e-01 8.077664893e-02 -1.41829083e-01
 94 4 430284 5.8214834868675489e+03 9.1211117394384673e+03 5.8343182519819529e-14 3.1254538725703806e+03 6.0477598591642400e+03 4.7240307230773418e+04 -999 3.40802191e-01 7.783874929e-02 -1.48044668e-01
 95 4 430284 5.2506534239670018e+03 7.7721283352722949e+03 5.5509084058202614e-14 2.6265611360733560e+03 5.6166557136886504e+03 2.3567003133459006e+04 -999 3.55862386e-01 7.596756469e-02 -1.53240097e-01
 96 4 430284 3.3696071339707214e+03 4.5832343761922930e+03 6.5426220193513536e-13 2.1971498756250398e+03 3.4688861017149229e+03 3.7540185165787894e+04 -999 3.86283232e-01 7.287147991e-02 -1.63441262e-01
 97 4 430284 2.9582462607736616e+03 3.5923333871619839e+03 7.9797037072792132e-13 1.7839616015157044e+03 2.9111579346375870e+03 5.8724412856315183e+04 -999 4.22612849e-01 6.933428010e-02 -1.74658811e-01
 98 4 430284 2.8218227504782562e+03 3.5555002278411398e+03 6.3445038143452904e-13 1.5211976568230423e+03 2.6908654187730422e+03 8.2336018054646818e+04 -999 4.60949998e-01 6.602119100e-02 -1.84759295e-01
 99 4 430284 2.8586845308718130e+03 3.6276237708250669e+03 4.5396266699179867e-13 1.3432636161356522e+03 2.7296682652549493e+03 9.8411753822051222e+04 -999 5.02177171e-01 6.323389951e-02 -1.93397954e-01
 100 4 430284 3.1535137562618647e+03 3.8720970762493575e+03 3.3965348778148220e-13 1.1712507249575231e+03 3.1056402708227856e+03 9.1040797120014991e+04 -999 5.45299866e-01 6.117686334e-02 -2.00077198e-01
 101 4 430284 2.7658122604239202e+03 3.0557891638218930e+03 2.5587706334727699e-13 1.0588737761099258e+03 2.6895064469446193e+03 4.4128470029453820e+04 -999 5.79658454e-01 6.042263381e-02 -2.03980824e-01
 102 4 430284 2.7258945163002963e+03 2.6828702810285963e+03 2.5532734477549880e-13 8.7009853712814220e+02 2.6580851375748166e+03 2.9797427460360967e+04 -999 6.16639842e-01 6.008578734e-02 -2.06687141e-01
 103 4 430284 2.6378592925222097e+03 2.5350705808689981e+03 2.3558393869944828e-13 7.6548870979448361e+02 2.5662694846535342e+03 1.4094759981736008e+04 -999 6.34301428e-01 6.020734772e-02 -2.07277387e-01
 104 4 430284 2.6220044769588644e+03 2.3017906241155720e+03 2.0643094628211055e-13 6.5493530484738085e+02 2.5529867299649868e+03 1.5872794267823709e+04 -999 6.61911657e-01 6.061912132e-02 -2.07676715e-01
 105 4 430284 2.5833637670437779e+03 2.2102338929874281e+03 1.9222054044385166e-13 6.0872593080161539e+02 2.5145662804969033e+03 1.1350017826767385e+04 -999 6.76016064e-01 6.101606730e-02 -2.07473026e-01
 106 4 430284 2.3720980949784071e+03 2.0768898524648653e+03 2.0106107114702819e-13 6.0571151257279087e+02 2.2965809315571078e+03 1.0911936434878384e+04 -999 7.01723464e-01 6.214075293e-02 -2.06992166e-01
 107 4 430284 2.2590173417154515e+03 1.9270619233312623e+03 2.8055024114849399e-13 6.0408680668385193e+02 2.1995829343873806e+03 1.0359064221152210e+04 -999 7.36534628e-01 6.377566996e-02 -2.05182266e-01
 108 4 430284 2.1208815206798931e+03 1.8229773029702123e+03 2.8919019447604841e-13 5.3628486682847404e+02 2.0579575817945315e+03 8.5450836542657016e+03 -999 7.56218720e-01 6.483285330e-02 -2.03429646e-01
 109 4 430284 2.0117023411824634e+03 1.7315226649699705e+03 2.8872181242604886e-13 4.8770467338046899e+02 1.9461675848100547e+03 8.2144527238888022e+03 -999 7.76326616e-01 6.589974304e-02 -2.01209279e-01
 110 4 430284 1.9067409968859718e+03 1.6527258984985331e+03 2.8158353372943599e-13 4.3175269637791138e+02 1.8369007573668987e+03 8.0844007764930393e+03 -999 7.97949353e-01 6.703272959e-02 -1.98493386e-01
 111 4 430284 1.7841837514631795e+03 1.5770898968768695e+03 2.5892043735289021e-13 4.2770576269795748e+02 1.7109149987002922e+03 7.3123330196656998e+03 -999 8.08457671e-01 6.746627342e-02 -1.96755957e-01
 112 4 430284 1.6680081362434341e+03 1.5045171224278388e+03 3.2918357415623287e-13 4.2377399977361466e+02 1.5899846493253146e+03 7.5188284394649017e+03 -999 8.20665325e-01 6.784734622e-02 -1.94685749e-01
 113 4 430284 1.5460393439584170e+03 1.4266145002724827e+03 3.9347903074403421e-13 4.0556475334748399e+02 1.4604480328480597e+03 7.8611171668770658e+03 -999 8.35860879e-01 6.809562562e-02 -1.92132868e-01
 114 4 430284 1.4558895436014477e+03 1.3592580019458403e+03 3.9193062039707991e-13 3.8423056024548220e+02 1.3610147767872891e+03 7.8765645296509401e+03 -999 8.48020524e-01 6.799330304e-02 -1.90213758e-01
 115 4 430284 1.4029203975848125e+03 1.3212628255633088e+03 3.9108775279797060e-13 3.7043671597668163e+02 1.3037966467057615e+03 7.4134792829951321e+03 -999 8.55086892e-01 6.775628480e-02 -1.89205158e-01
 116 4 430284 1.3224973880900450e+03 1.2658286342163588e+03 2.1629265984593229e-13 3.4781952444634692e+02 1.2169995893232563e+03 7.9868825016526926e+03 -999 8.66384341e-01 6.718999575e-02 -1.87852579e-01
 117 4 430284 1.2625265175511543e+03 1.2174799831822122e+03 1.4618802475730900e-13 3.3368377740383607e+02 1.1493988009620766e+03 7.8986215872726425e+03 -999 8.77271485e-01 6.639356372e-02 -1.86848581e-01
 118 4 430284 1.2131279828676834e+03 1.1681270746707496e+03 1.2696084373116849e-13 3.2477025682907339e+02 1.0924509913605693e+03 7.9131269319496769e+03 -999 8.90326385e-01 6.516015287e-02 -1.85903355e-01
 119 4 430284 1.1742751259137590e+03 1.1483736346159599e+03 1.2329033683437928e-13 3.2206784120198233e+02 1.0505891745419788e+03 7.6395249259208704e+03 -999 8.98960565e-01 6.416896148e-02 -1.85477711e-01
 120 4 430284 1.1470435500119693e+03 1.1433013772480747e+03 1.1992828126198199e-13 3.2114273580992392e+02 1.0192265150531020e+03 7.5299984684799447e+03 -999 9.06799891e-01 6.318780501e-02 -1.85161778e-01
 121 4 430284 1.1180497042522645e+03 1.1349975021599855e+03 1.3892077649192168e-13 3.2378991499108162e+02 9.8734547040850532e+02 7.5634288794598060e+03 -999 9.13663997e-01 6.230530865e-02 -1.85002104e-01
 122 4 430284 1.0960571215058267e+03 1.1203925164809734e+03 2.0742409756113403e-13 3.2684150819014826e+02 9.6297513743482682e+02 7.6606440142364854e+03 -999 9.21785136e-01 6.126059841e-02 -1.84872988e-01
 123 4 430284 1.0758269729538449e+03 1.1069735394170546e+03 2.5830339885424682e-13 3.2761862924101871e+02 9.4259829480405028e+02 7.8374361685054919e+03 -999 9.30581873e-01 6.013567527e-02 -1.84774471e-01
 124 4 430284 1.0742133279298457e+03 1.1118503496192686e+03 2.8392825527038585e-13 3.2797242285226179e+02 9.3878479071032746e+02 8.0873417208915771e+03 -999 9.39883268e-01 5.898613803e-02 -1.84700684e-01
 125 4 430284 1.0728413180504463e+03 1.0990951880026573e+03 2.9162816126743999e-13 3.2669857663302793e+02 9.3504506597100658e+02 8.3494426673004218e+03 -999 9.45254564e-01 5.835308982e-02 -1.84654764e-01
 126 4 430284 1.0464167666274191e+03 1.0927451177446981e+03 2.3273315944752726e-13 3.2400578204776514e+02 9.1086407101198290e+02 8.8627689106703292e+03 -999 9.51014674e-01 5.767327862e-02 -1.84531885e-01
 127 4 430284 1.0328380454780040e+03 1.0742372670422089e+03 2.3229559907990027e-13 3.2273538002780992e+02 8.9846725983746626e+02 9.2661286433271744e+03 -999 9.58867627e-01 5.682759347e-02 -1.84391952e-01
 128 4 430284 1.0388346910025305e+03 1.0555557522739689e+03 2.6174253110301040e-13 3.2092312415861733e+02 9.0387967222054181e+02 9.6259554501888324e+03 -999 9.67222368e-01 5.601765473e-02 -1.84229660e-01
 129 4 430284 1.0520539497132127e+03 1.0482787205897685e+03 2.7577201366036794e-13 3.1940617987714091e+02 9.1812876052617457e+02 1.0032228412286418e+04 -999 9.73030851e-01 5.551469132e-02 -1.84083971e-01
 130 4 430284 1.0573443410762704e+03 1.0498786280137315e+03 2.8303565314596834e-13 3.1823674527418228e+02 9.2757944465644357e+02 1.0467493980154410e+04 -999 9.78049819e-01 5.511716755e-02 -1.83934613e-01
 131 4 430284 1.0282937042903818e+03 1.0426776205858066e+03 2.4571505385564298e-13 3.1557476424770823e+02 9.0004098496728068e+02 1.0975349245136415e+04 -999 9.82550009e-01 5.477035158e-02 -1.83727704e-01
 132 4 430284 1.0271642428428179e+03 1.0314636345828062e+03 2.7305040251588595e-13 3.1386690343462050e+02 8.9877482438367656e+02 1.1434285473773953e+04 -999 9.88033837e-01 5.439026254e-02 -1.83466456e-01
 133 4 430284 1.0363433396291082e+03 1.0147248471373568e+03 3.1548092864675489e-13 3.1159696652818394e+02 9.1119941321712702e+02 1.1913472323366062e+04 -999 9.93712627e-01 5.404881409e-02 -1.83187272e-01
 134 4 430284 1.0599542865718745e+03 1.0263506918230312e+03 3.4648933616656495e-13 3.1053106121872310e+02 9.3725139434586913e+02 1.2305490715642627e+04 -999 9.99787507e-01 5.372262989e-02 -1.82837978e-01
 135 4 430284 1.0719473152831852e+03 1.0231507100575783e+03 3.5524730911235081e-13 3.1030535141717053e+02 9.4718384200521336e+02 1.2646590316544196e+04 -999 1.00303896e+00 5.355641219e-02 -1.82586646e-01
 136 4 430284 1.0415301995609448e+03 1.0106260416545042e+03 2.9697520200083168e-13 3.1147827333635547e+02 9.1919116037298670e+02 1.3025346373352964e+04 -999 1.00579242e+00 5.340572506e-02 -1.82312344e-01
 137 4 430284 1.0244516485942343e+03 9.9814087324085517e+02 2.8510189598911446e-13 3.1525784322097519e+02 9.0455599937914292e+02 1.3404653175044694e+04 -999 1.00937712e+00 5.322589966e-02 -1.81945091e-01
 138 4 430284 1.0271972086991018e+03 9.8759529917572581e+02 3.1849553689802936e-13 3.1898558777375905e+02 9.0786041237871984e+02 1.4041533733232125e+04 -999 1.01371682e+00 5.303557970e-02 -1.81496637e-01
 139 4 430284 1.0479109964567765e+03 9.8352985815874104e+02 3.4544543626049681e-13 3.2067674970628718e+02 9.2715902396865931e+02 1.4424416227264539e+04 -999 1.01727604e+00 5.290078833e-02 -1.81117328e-01
 140 4 430284 1.0575688319691781e+03 9.8733848352499842e+02 3.5856199563956307e-13 3.2118347261628924e+02 9.3891137632571429e+02 1.4994931602689654e+04 -999 1.01999626e+00 5.280356306e-02 -1.80803068e-01
 141 4 430284 1.0320221289927231e+03 9.8656760021648074e+02 2.9894694773188516e-13 3.2461298393668608e+02 9.1334119141317535e+02 1.5381049726975982e+04 -999 1.02174727e+00 5.271478557e-02 -1.80508869e-01