TITLE = "005.02 ALPHA 3.60 GRIDLEVEL 5"

VARIABLES = "ITERATION"  "GRID_LEVEL"  "GRID_SIZE"  "CONTINUITY"  "MOMENTUMX"  "MOMENTUMY"  "MOMENTUMZ"  "ENERGY"  "TURB1"  "TURB2"  "CL_TOT"  "CD_TOT"  "CM_TOT"

DATASETAUXDATA ParticipantID   = "005"
DATASETAUXDATA SubmissionDate  = "10-31-2024"
DATASETAUXDATA Name            = "Jeffrey A. Housman"
DATASETAUXDATA Email           = "jeffrey.a.housman@nasa.gov"
DATASETAUXDATA Institution     = "NASA Ames Research Center"
DATASETAUXDATA SolverName      = "LAVA Curvilinear"
DATASETAUXDATA BasicAlgorithm  = "RANS"
DATASETAUXDATA TurbulenceModel = "SA-RC-comp-neg"
DATASETAUXDATA GridId          = "Multiblock"
DATASETAUXDATA Discretization  = "Finite difference"
DATASETAUXDATA Order           = "2"
DATASETAUXDATA DistanceCalc    = "Exact"
DATASETAUXDATA Notes           = " "

ZONE T = "005.02 - Alpha 3.60 - Grid Level 5"
AUXDATA Tstatic         = "271.0"
AUXDATA Deltat          = "-999"
AUXDATA GridFileName    = "ONERA-OAT15A_230mmChord_780mmSpan_upZ_2024_06_25-Structured_23mm_Level-5.x"
AUXDATA Misc            = " "
 0 5 752103 5.0295006074056332e+05 1.6014248289551584e+06 7.6805830982506677e-14 5.0537083651410096e+05 5.3720063614332094e+05 2.8735624366640919e+06 -999 1.81748045e-02 9.100802137e-01 -1.20885417e-02
 1 5 752103 7.4462418243977230e+05 1.1952672505227986e+06 6.5433924681340406e-14 3.8052993448024767e+05 7.2747282541645784e+05 1.8619716219142261e+06 -999 5.66628951e-02 8.324996373e-01 -2.71766143e-02
 2 5 752103 9.0612555394962931e+05 1.0188069812315202e+06 5.7075265552531767e-14 4.1644658646403853e+05 8.7142568878877780e+05 1.2113690200535038e+06 -999 1.03362268e-01 7.877366832e-01 -4.51925601e-02
 3 5 752103 1.0528730784166658e+06 9.0918304251633130e+05 5.0710552267776854e-14 4.9144325027033343e+05 1.0108300980540009e+06 7.9230653008000145e+05 -999 1.45873832e-01 7.586004210e-01 -6.20575165e-02
 4 5 752103 1.1798687479671547e+06 8.3198736735388415e+05 4.5758017187019511e-14 5.8273195058143430e+05 1.1437390638463947e+06 5.1083769833853998e+05 -999 1.83411722e-01 7.390484950e-01 -7.54609073e-02
 5 5 752103 1.3110362522207105e+06 8.3229590861289878e+05 4.1875093254565471e-14 6.7942310960554995e+05 1.3007665615110360e+06 3.2864843140164064e+05 -999 2.12559382e-01 7.239260097e-01 -8.57459054e-02
 6 5 752103 1.1984006529690456e+06 8.5752046429514815e+05 3.8948655084401683e-14 7.1308155322576547e+05 1.1908017866315970e+06 1.7467970849456123e+05 -999 2.32727620e-01 7.033047360e-01 -9.35319483e-02
 7 5 752103 1.2295019756770809e+06 8.6379728191203822e+05 3.6338218210523864e-14 7.4342454506808589e+05 1.2187768967419087e+06 1.2239042250954070e+05 -999 2.49047650e-01 6.806209522e-01 -1.00337281e-01
 8 5 752103 1.2917541299707487e+06 8.4429939339596301e+05 3.4413571017041506e-14 7.6331823933857668e+05 1.3006016747255039e+06 1.0070131694610024e+05 -999 2.61562575e-01 6.581688138e-01 -1.05369936e-01
 9 5 752103 1.5607739263335769e+06 9.1926581313589960e+05 3.2799867921380931e-14 8.4034917885400110e+05 1.6311151297449246e+06 8.8820513846673130e+04 -999 2.73433694e-01 6.331692478e-01 -1.09773221e-01
 10 5 752103 1.4591066489877373e+06 7.6792406064700941e+05 3.1879936752850293e-14 8.0937428565321432e+05 1.5034466861905293e+06 7.9694692323669398e+04 -999 2.79814191e-01 6.182959307e-01 -1.12076513e-01
 11 5 752103 1.3826629734064720e+06 7.9060481227019243e+05 3.0825745056493468e-14 8.0085131222424260e+05 1.4145571728500794e+06 7.1907425362434675e+04 -999 2.86509891e-01 6.017411131e-01 -1.14541639e-01
 12 5 752103 1.2833003039075569e+06 7.6978324177379149e+05 2.9806408223518687e-14 7.7244007320990751e+05 1.2996026417742325e+06 6.6133337548584910e+04 -999 2.92311015e-01 5.862157150e-01 -1.16569527e-01
 13 5 752103 1.4320428435818993e+06 8.1660786415158806e+05 2.8846169352183114e-14 8.0886304744457966e+05 1.4805366753919297e+06 6.1724556229096474e+04 -999 2.97880143e-01 5.698635810e-01 -1.18505757e-01
 14 5 752103 1.3486636162694420e+06 7.0121853860941774e+05 2.8281023000317582e-14 7.7291127140739560e+05 1.3768288408768501e+06 5.7761437087775681e+04 -999 3.00985095e-01 5.597007929e-01 -1.19651204e-01
 15 5 752103 1.5480633278030015e+06 8.4078284257979749e+05 2.7847765714258128e-14 8.0883002326180344e+05 1.6425204898882359e+06 5.4449911333441232e+04 -999 3.03932464e-01 5.493660986e-01 -1.20837900e-01
 16 5 752103 1.3015786722750154e+06 7.3413263632607076e+05 2.7299758993619258e-14 7.3988295492387819e+05 1.3658931763127085e+06 5.0014772090812454e+04 -999 3.06129610e-01 5.404535363e-01 -1.21757179e-01
 17 5 752103 1.2032884105753461e+06 6.8557186516160495e+05 2.6731615759398345e-14 7.1455248288943025e+05 1.2226259557648285e+06 4.6530950950630555e+04 -999 3.08352778e-01 5.304226289e-01 -1.22646302e-01
 18 5 752103 1.1781194744283920e+06 6.4559397176939668e+05 2.6331760197698661e-14 6.9644715589180344e+05 1.1892939826815506e+06 4.3763077822161649e+04 -999 3.10074816e-01 5.217177659e-01 -1.23254410e-01
 19 5 752103 1.3102069208481980e+06 6.8931764609042939e+05 2.6018467258102494e-14 7.0172898883609159e+05 1.3721458632578761e+06 4.1399633757877797e+04 -999 3.11518907e-01 5.138115852e-01 -1.23685235e-01
 20 5 752103 1.2946756111341645e+06 6.3132258147776139e+05 2.5800789503619361e-14 7.0377477257061785e+05 1.3419137509127888e+06 3.9283515155039451e+04 -999 3.12572118e-01 5.075463179e-01 -1.23961331e-01
 21 5 752103 1.1785333346251114e+06 6.5392432816484128e+05 2.5431050663067753e-14 6.6477911085607973e+05 1.2280180753358102e+06 3.6346319975121194e+04 -999 3.13427940e-01 5.014405061e-01 -1.24168449e-01
 22 5 752103 1.0495955331140421e+06 5.8184477639601764e+05 2.4992404791995522e-14 6.2016131370871025e+05 1.0727902198374826e+06 3.4038557430740606e+04 -999 3.14369331e-01 4.941531417e-01 -1.24390059e-01
 23 5 752103 1.0551535843357437e+06 5.9799672993630159e+05 2.4604267544313184e-14 6.0806360693411529e+05 1.0787928483668985e+06 3.2143370422870052e+04 -999 3.15198069e-01 4.871466464e-01 -1.24586097e-01
 24 5 752103 1.1928791714187064e+06 6.2929927390999696e+05 2.4326553460674436e-14 6.2572668081462092e+05 1.2509380437756844e+06 3.0600043788802941e+04 -999 3.15939876e-01 4.803974870e-01 -1.24769787e-01
 25 5 752103 1.1360682089027995e+06 5.4373273783957853e+05 2.4101221499514690e-14 6.0158914157013979e+05 1.1882774044655534e+06 2.9071881987823057e+04 -999 3.16382608e-01 4.760421597e-01 -1.24885955e-01
 26 5 752103 1.0179353317845799e+06 5.3456950288977334e+05 2.3712810041013285e-14 5.6968634059733094e+05 1.0618646965016078e+06 2.7029499218488956e+04 -999 3.16803588e-01 4.711159567e-01 -1.24994123e-01
 27 5 752103 9.0866723780639248e+05 5.1309979964081437e+05 2.3273029597317357e-14 5.3289641899510112e+05 9.3169818057401269e+05 2.5439981869547857e+04 -999 3.17268636e-01 4.655051093e-01 -1.25116917e-01
 28 5 752103 9.1476189530206262e+05 5.1178532864338928e+05 2.2905921283393127e-14 5.1907678575733880e+05 9.3542828185208142e+05 2.4128010447939385e+04 -999 3.17722308e-01 4.599316215e-01 -1.25238208e-01
 29 5 752103 1.0350048824324455e+06 5.4435653720614244e+05 2.2664813439197113e-14 5.3050706564008503e+05 1.0855525949600043e+06 2.3010678742939035e+04 -999 3.18144697e-01 4.546524682e-01 -1.25348938e-01
 30 5 752103 1.0016308132281044e+06 4.7560459555781184e+05 2.2553031339461870e-14 5.1665027772315225e+05 1.0482817828380243e+06 2.1916795195112525e+04 -999 3.18419069e-01 4.511442619e-01 -1.25418776e-01
 31 5 752103 8.8835744805297116e+05 4.7363844188246736e+05 2.2315183421080060e-14 4.8433939644469990e+05 9.3259489686196332e+05 2.0415543412818639e+04 -999 3.18687877e-01 4.471700598e-01 -1.25480751e-01
 32 5 752103 7.7584544359884621e+05 4.3797099150775099e+05 2.2075901942798811e-14 4.4818807693377149e+05 7.9869627589269145e+05 1.9255818265379039e+04 -999 3.18997910e-01 4.425940965e-01 -1.25552599e-01
 33 5 752103 7.6937532739888027e+05 4.2941354393367650e+05 2.1907739615924847e-14 4.3191426358597446e+05 7.8287961419639341e+05 1.8312771474710320e+04 -999 3.19311401e-01 4.379577530e-01 -1.25625717e-01
 34 5 752103 8.4514854990027670e+05 4.4976450870411791e+05 2.1874733408138920e-14 4.3155313562916819e+05 8.8525129975869018e+05 1.7476092350273218e+04 -999 3.19570770e-01 4.341022429e-01 -1.25686817e-01
 35 5 752103 9.6068827195749362e+05 5.4131567221456463e+05 2.1892190647298366e-14 4.4958230913285771e+05 1.0319391523359515e+06 1.6726070925714543e+04 -999 3.19812221e-01 4.304957142e-01 -1.25744403e-01
 36 5 752103 8.0013247483363980e+05 4.6600862162728072e+05 2.1707945701583279e-14 4.0828562752329727e+05 8.6294372968352411e+05 1.5590137221861114e+04 -999 3.19995051e-01 4.273789030e-01 -1.25784357e-01
 37 5 752103 6.6234037912283326e+05 3.8559192779586761e+05 2.1480449609560112e-14 3.7187295713583688e+05 6.9170838656316919e+05 1.4712679007372188e+04 -999 3.20217859e-01 4.236376108e-01 -1.25834070e-01
 38 5 752103 6.3323373583470646e+05 3.6385815176715958e+05 2.1276578934214970e-14 3.5220016895297950e+05 6.4302333161479153e+05 1.3989117093747847e+04 -999 3.20449268e-01 4.198144083e-01 -1.25886909e-01
 39 5 752103 6.9970707485185750e+05 3.7674726811846450e+05 2.1156973491168299e-14 3.5032179176350898e+05 7.2763440715612366e+05 1.3365140339120093e+04 -999 3.20658314e-01 4.164068104e-01 -1.25935618e-01
 40 5 752103 7.6251271458886610e+05 3.9354651062371646e+05 2.1102556482348029e-14 3.5625004378371860e+05 8.0536352927947126e+05 1.2794780295226145e+04 -999 3.20838488e-01 4.134971858e-01 -1.25978306e-01
 41 5 752103 6.4854520318358939e+05 3.6235770479763753e+05 2.0867326073710654e-14 3.2667880346512888e+05 6.9440453331339825e+05 1.1899829466087731e+04 -999 3.20990949e-01 4.107531693e-01 -1.26011595e-01
 42 5 752103 5.3480182570912596e+05 3.1537129198224435e+05 2.0573269308325820e-14 2.9627755461547093e+05 5.6094180508594878e+05 1.1182176497132841e+04 -999 3.21173497e-01 4.075408000e-01 -1.26052352e-01
 43 5 752103 4.9981117055461201e+05 2.8832061510119564e+05 2.0278517030518487e-14 2.7576888863642543e+05 5.0562952058894164e+05 1.0575392100479075e+04 -999 3.21379411e-01 4.040015146e-01 -1.26099278e-01
 44 5 752103 5.4332043062622496e+05 2.9438175538786314e+05 2.0077766750803421e-14 2.7078278416977864e+05 5.6075429007994512e+05 1.0054503048925055e+04 -999 3.21561774e-01 4.009369167e-01 -1.26141609e-01
 45 5 752103 5.9849564327408408e+05 3.3070296224097040e+05 1.9952061254875087e-14 2.7248911945528502e+05 6.3758006229370099e+05 9.5860037401703612e+03 -999 3.21714430e-01 3.984122106e-01 -1.26177593e-01
 46 5 752103 5.0635944955072564e+05 2.8033108639040287e+05 1.9705855283764378e-14 2.4956588790498054e+05 5.4418107841073733e+05 8.9100277870975151e+03 -999 3.21852971e-01 3.959063562e-01 -1.26207567e-01
 47 5 752103 4.1569534093015012e+05 2.4658877823378218e+05 1.9417067335760468e-14 2.2648729177135535e+05 4.3899422259814129e+05 8.3402483738954252e+03 -999 3.22015630e-01 3.930367045e-01 -1.26243443e-01
 48 5 752103 3.7874542938544514e+05 2.2519466382437153e+05 1.9137419619024146e-14 2.0889610643511201e+05 3.8472123493489018e+05 7.8494334892105717e+03 -999 3.22198062e-01 3.898991108e-01 -1.26284443e-01
 49 5 752103 4.0322267342357599e+05 2.2475709213304103e+05 1.8963086115358666e-14 2.0214185806214798e+05 4.1275809690561815e+05 7.4273113432037044e+03 -999 3.22369171e-01 3.870257349e-01 -1.26323654e-01
 50 5 752103 4.3990652743840183e+05 2.3876758565458769e+05 1.8885117688300152e-14 2.0129426783982519e+05 4.6164743365085765e+05 7.0503666300580926e+03 -999 3.22519616e-01 3.845430577e-01 -1.26358869e-01
 51 5 752103 3.7746612956275482e+05 2.1156612926733246e+05 1.8676217430025963e-14 1.8456879223072444e+05 4.0294898229301185e+05 6.5236369246810536e+03 -999 3.22647814e-01 3.822777201e-01 -1.26386716e-01
 52 5 752103 3.0831208181235450e+05 1.8661999011281203e+05 1.8409970731683863e-14 1.6613236379276501e+05 3.2756232369619538e+05 6.0763122673769112e+03 -999 3.22803887e-01 3.795769524e-01 -1.26421386e-01
 53 5 752103 2.7238967343809130e+05 1.6837724300048745e+05 1.8127449588330209e-14 1.5037306573782812e+05 2.7937427480504144e+05 5.6627470864873267e+03 -999 3.22983472e-01 3.765378413e-01 -1.26462332e-01
 54 5 752103 2.8038618033091526e+05 1.6445812752534045e+05 1.7930302811242361e-14 1.4220279961308528e+05 2.8668540268199734e+05 5.3086893830821746e+03 -999 3.23154027e-01 3.737112774e-01 -1.26502510e-01
 55 5 752103 2.9869411696204840e+05 1.7117718051597511e+05 1.7827317395863221e-14 1.3851166358166936e+05 3.1206437004480523e+05 4.9940386460777290e+03 -999 3.23306311e-01 3.712227165e-01 -1.26539835e-01
 56 5 752103 2.5711945744810454e+05 1.5303412383894314e+05 1.7635823166978578e-14 1.2727187635272193e+05 2.7350141452854482e+05 4.5798794283242969e+03 -999 3.23434770e-01 3.689825326e-01 -1.26570127e-01
 57 5 752103 2.1047424202977304e+05 1.3620023588592969e+05 1.7394844594131008e-14 1.1461303194089935e+05 2.2450408698352912e+05 4.2168699656189237e+03 -999 3.23589630e-01 3.663324180e-01 -1.26607552e-01
 58 5 752103 1.8183324088648503e+05 1.2285899808731151e+05 1.7138387145929322e-14 1.0279819160274816e+05 1.8902653781267744e+05 3.8902865508009627e+03 -999 3.23770737e-01 3.632934182e-01 -1.26652756e-01
 59 5 752103 1.7968669597350131e+05 1.1760169147847459e+05 1.6955107000131019e-14 9.5315411517662229e+04 1.8483049864532211e+05 3.6111683388831352e+03 -999 3.23948081e-01 3.603702141e-01 -1.26699131e-01
 60 5 752103 1.8397370427973964e+05 1.1674252339996575e+05 1.6864288518525279e-14 9.0684957048990895e+04 1.9129539708454706e+05 3.3732209213254746e+03 -999 3.24108659e-01 3.577514431e-01 -1.26743754e-01
 61 5 752103 1.5957953078134847e+05 1.0736924974263672e+05 1.6682991854166379e-14 8.3898405722155148e+04 1.6873618425427430e+05 3.0572867528880265e+03 -999 3.24237971e-01 3.555154845e-01 -1.26778602e-01
 62 5 752103 1.3097007804106902e+05 9.7952032919728052e+04 1.6446179490389414e-14 7.5969367860344748e+04 1.3945662042518985e+05 2.7832937969168061e+03 -999 3.24396709e-01 3.528145627e-01 -1.26822253e-01
 63 5 752103 1.1024053212983908e+05 8.9553305270215307e+04 1.6175354347267814e-14 6.7989570640755599e+04 1.1545786382615053e+05 2.5426258763177261e+03 -999 3.24586021e-01 3.496448045e-01 -1.26876014e-01
 64 5 752103 1.0364558136892719e+05 8.4422484491383337e+04 1.5957003107689279e-14 6.2175630988066572e+04 1.0722705021325355e+05 2.3406347678152397e+03 -999 3.24773534e-01 3.465444817e-01 -1.26932234e-01
 65 5 752103 1.0076528173679132e+05 8.1105752673442723e+04 1.5807218791054967e-14 5.8007836043697054e+04 1.0433346304852849e+05 2.1698504117956845e+03 -999 3.24943558e-01 3.437439158e-01 -1.26987238e-01
 66 5 752103 8.8046953170693887e+04 7.6310796142804378e+04 1.5614115459146462e-14 5.3564453925260932e+04 9.2311877130645065e+04 1.9462594049685165e+03 -999 3.25076471e-01 3.413725510e-01 -1.27026576e-01
 67 5 752103 7.2856809404663785e+04 7.1137217500028899e+04 1.5381943165143578e-14 4.8313408913653679e+04 7.6738509700005714e+04 1.7592113190395801e+03 -999 3.25239447e-01 3.384809251e-01 -1.27075297e-01
 68 5 752103 6.0302447537037049e+04 6.5948212079944802e+04 1.5078884619649278e-14 4.2647822193798936e+04 6.2671797821281012e+04 1.6020424805441269e+03 -999 3.25435300e-01 3.350108606e-01 -1.27135363e-01
 69 5 752103 5.3918844795260666e+04 6.1907800535271490e+04 1.4816701242329520e-14 3.8002475989946688e+04 5.5331024991507358e+04 1.4743791005563514e+03 -999 3.25627950e-01 3.315691732e-01 -1.27197944e-01
 70 5 752103 4.9691238066259917e+04 5.8729757518326136e+04 1.4621868220571769e-14 3.4401975435884771e+04 5.0696792771016102e+04 1.3708330884470972e+03 -999 3.25800574e-01 3.284177930e-01 -1.27259354e-01
 71 5 752103 4.3599125924980872e+04 5.5662378473072262e+04 1.4408015505702176e-14 3.1365823777782891e+04 4.4716984187522183e+04 1.2360076353588613e+03 -999 3.25921266e-01 3.256033669e-01 -1.27290512e-01
 72 5 752103 3.6461383071342716e+04 5.2187810351428692e+04 1.4146869622728334e-14 2.7862884087897244e+04 3.7331652399826598e+04 1.1344735273992858e+03 -999 3.26064074e-01 3.220924937e-01 -1.27324936e-01
 73 5 752103 3.0193549537017905e+04 4.8489851165353088e+04 1.3817457064186550e-14 2.4146512813721427e+04 3.0554510402884996e+04 1.0993530067619381e+03 -999 3.26225681e-01 3.177886733e-01 -1.27360984e-01
 74 5 752103 2.6329102089402611e+04 4.5375750195414083e+04 1.3500728027401837e-14 2.1158145372638726e+04 2.6472350613787690e+04 1.0890462776205709e+03 -999 3.26369066e-01 3.134658290e-01 -1.27391240e-01
 75 5 752103 2.3741870749603848e+04 4.2866630482551700e+04 1.3228715784187769e-14 1.8947321559209453e+04 2.3890313277749825e+04 1.1191794611310715e+03 -999 3.26484232e-01 3.093892743e-01 -1.27416020e-01
 76 5 752103 2.0941214200236926e+04 4.0452491371405857e+04 1.2967004501237889e-14 1.7127155845516896e+04 2.1340460125175898e+04 1.1913787926448772e+03 -999 3.26508245e-01 3.050746703e-01 -1.27366483e-01
 77 5 752103 1.8124864331419049e+04 3.7738212638223864e+04 1.2650828873375008e-14 1.5345198426540934e+04 1.8824945777523997e+04 1.4268508890900262e+03 -999 3.26533430e-01 2.994109177e-01 -1.27288494e-01
 78 5 752103 1.6312251840616129e+04 3.5015398701141181e+04 1.2287838437145873e-14 1.4036888004857543e+04 1.7408237329665273e+04 1.9719704179458490e+03 -999 3.26575004e-01 2.922798680e-01 -1.27181655e-01
 79 5 752103 1.5841687326772175e+04 3.2913053465656936e+04 1.1948902873613997e-14 1.3514521688986799e+04 1.7349503783552173e+04 2.8183804044554195e+03 -999 3.26658217e-01 2.849669598e-01 -1.27079989e-01
 80 5 752103 1.5960315924794730e+04 3.1350503639011684e+04 1.1681218692396511e-14 1.3397665094566890e+04 1.7825495604394637e+04 4.1783365836262246e+03 -999 3.26809552e-01 2.777242397e-01 -1.27006700e-01
 81 5 752103 1.5340704473917454e+04 2.9087399822621599e+04 1.1348397749943502e-14 1.2415591729722033e+04 1.7534959339861351e+04 8.6512915944098368e+03 -999 3.27198207e-01 2.681373360e-01 -1.26949133e-01
 82 5 752103 1.5352843862927633e+04 2.6903886733081086e+04 1.1106734446875939e-14 1.1762160389086946e+04 1.7793047249983203e+04 2.6548509615717845e+04 -999 3.27918631e-01 2.541453407e-01 -1.27035592e-01
 83 5 752103 1.5985775945857133e+04 2.6427656513181977e+04 1.1101594575921502e-14 1.1689482201043111e+04 1.8441535621166971e+04 5.7618883629667558e+04 -999 3.28872201e-01 2.371288152e-01 -1.27506461e-01
 84 5 752103 1.6698753005377588e+04 2.7321135635431841e+04 1.1054014623644524e-14 1.1890580566162480e+04 1.9073589092284088e+04 1.1223366248265868e+05 -999 3.29663737e-01 2.197460336e-01 -1.28475402e-01
 85 5 752103 1.7537655256989292e+04 3.1867460675888189e+04 1.0993838992779440e-14 1.2207718620111715e+04 2.1870235034399557e+04 1.6991794900356073e+05 -999 3.29903893e-01 2.014956230e-01 -1.29971336e-01
 86 5 752103 1.5354738291801321e+04 2.2220425401989021e+04 1.0335158930865372e-14 1.1110866454152452e+04 1.6685889679248150e+04 3.4809023529530858e+05 -999 3.29002416e-01 1.718211992e-01 -1.33201387e-01
 87 5 752103 1.3763362082197054e+04 2.1786990571190297e+04 9.3611906717052310e-15 1.0577364257477178e+04 1.4913124433456434e+04 2.8037134138155595e+05 -999 3.25883496e-01 1.477255720e-01 -1.35760189e-01
 88 5 752103 1.3062455136609162e+04 3.9078592930253653e+04 8.4070459364836643e-15 1.0357904830702006e+04 1.6718357211662231e+04 2.2520688309833055e+05 -999 3.23901332e-01 1.401382024e-01 -1.36061338e-01
 89 5 752103 1.2814943759017842e+04 4.7560007575578245e+04 8.1033511876442791e-15 9.3420236755245915e+03 1.9333167239753744e+04 1.3909028446250877e+05 -999 3.23289152e-01 1.382452756e-01 -1.36043012e-01
 90 5 752103 1.2693351976287655e+04 4.0224620314083964e+04 8.0155258466187208e-15 9.1910448047893497e+03 1.8126996614405631e+04 6.8706546539219693e+04 -999 3.22965980e-01 1.372542759e-01 -1.36022414e-01
 91 5 752103 1.1284401507159986e+04 2.0242904519037063e+04 7.6144479521161897e-15 7.8086001957778326e+03 1.1689928204820981e+04 2.6381334458872856e+05 -999 3.19303098e-01 1.260770895e-01 -1.35811876e-01
 92 5 752103 1.0317383452166901e+04 1.8444526977818165e+04 7.0626635321841969e-15 6.9579090472112566e+03 1.0484343310267950e+04 1.5151206743705698e+05 -999 3.16802983e-01 1.189784613e-01 -1.35100952e-01
 93 5 752103 9.7940194873212913e+03 1.7428840175452606e+04 6.4488945481686741e-15 6.4381389675352893e+03 9.8775400598551423e+03 5.4803449510725273e+04 -999 3.15922599e-01 1.152325047e-01 -1.34582717e-01
 94 5 752103 9.5287311031015433e+03 1.6343091936216146e+04 6.2089280106908371e-15 6.0634625283592859e+03 9.5939326288752272e+03 4.0231323438609834e+04 -999 3.15622841e-01 1.122113605e-01 -1.34145551e-01
 95 5 752103 9.2668972067073719e+03 1.5609410731561895e+04 6.0103038513029544e-15 5.8716453329577744e+03 9.6425366828335973e+03 2.2447056598556799e+04 -999 3.15728557e-01 1.103877935e-01 -1.33895288e-01
 96 5 752103 7.9409058215644036e+03 1.2918465516314360e+04 1.4958555090220331e-13 5.0711908175714598e+03 7.9720320578743713e+03 6.2278394774563261e+04 -999 3.20738621e-01 1.052736923e-01 -1.34519919e-01
 97 5 752103 6.9767288357692132e+03 1.0578928943397907e+04 2.9713181786753526e-13 4.9638265310980551e+03 6.7501673327501103e+03 9.8033331321939055e+04 -999 3.33212622e-01 9.749029525e-02 -1.36904698e-01
 98 5 752103 7.1572157641096346e+03 1.0854968323823672e+04 3.0019389600979193e-13 4.8778893586574568e+03 6.9223037938516682e+03 6.3266467337904898e+04 -999 3.48598041e-01 9.229463881e-02 -1.40690345e-01
 99 5 752103 7.2500571120193008e+03 1.1024483354841450e+04 2.6987996705486947e-13 4.5802213509579815e+03 7.1204995943316108e+03 4.0017318918885241e+04 -999 3.60160138e-01 8.957275785e-02 -1.43781385e-01
 100 5 752103 7.2169779023516448e+03 1.1044266597643116e+04 2.2776321017603790e-13 4.2691097259212165e+03 7.3580503154660428e+03 5.6502211939613706e+04 -999 3.74647304e-01 8.681792376e-02 -1.47859891e-01
 101 5 752103 5.2562841994081173e+03 7.4765167200276119e+03 1.8988264833623569e-13 3.7163120300393321e+03 5.1743474005025582e+03 5.8128898971702140e+04 -999 3.93766296e-01 8.423512394e-02 -1.53498179e-01
 102 5 752103 4.7922773781355972e+03 5.4855397078013139e+03 1.9043439595539656e-13 3.3833374847296741e+03 4.8946163405342359e+03 9.8409799492574399e+04 -999 4.24993389e-01 8.085090471e-02 -1.62817071e-01
 103 5 752103 4.3114245411518314e+03 4.8781454168313294e+03 2.9192675573995278e-13 3.0641832516627492e+03 4.1995750004057882e+03 1.1026968097317671e+05 -999 4.59032070e-01 7.793558116e-02 -1.72856612e-01
 104 5 752103 3.9547844028749669e+03 4.4564597024275627e+03 4.8813330289833368e-13 2.7595896854276230e+03 3.7591261159188671e+03 9.7365763591963041e+04 -999 4.88023438e-01 7.596916764e-02 -1.80930183e-01
 105 5 752103 3.8502809294433473e+03 4.3319396864688088e+03 7.7527812273202367e-13 2.3171367698912545e+03 3.6401419031320365e+03 9.6386324350561510e+04 -999 5.24759796e-01 7.389450921e-02 -1.90263042e-01
 106 5 752103 3.5874766164923544e+03 3.9144042393111599e+03 7.1173122233483784e-13 2.1241316721542421e+03 3.4562045644665632e+03 9.7257398289436271e+04 -999 5.60058794e-01 7.228317091e-02 -1.97877765e-01
 107 5 752103 3.4747277309525380e+03 3.6917327946488758e+03 6.8159569642211870e-13 1.8098286428967499e+03 3.3340813216973006e+03 7.7341088088568649e+04 -999 5.98824717e-01 7.112875598e-02 -2.05052284e-01
 108 5 752103 3.3703645455195292e+03 3.5080219337463859e+03 6.5280907690988904e-13 1.4835948694085607e+03 3.2315011014930656e+03 3.0304089608100268e+04 -999 6.26214050e-01 7.068096640e-02 -2.09058004e-01
 109 5 752103 3.3263547799863659e+03 3.4038610205691939e+03 6.5441313419771650e-13 1.3445345846042121e+03 3.2016618640982542e+03 1.9777019605381716e+04 -999 6.44936629e-01 7.053928668e-02 -2.11226441e-01
 110 5 752103 3.2997596376676202e+03 3.3084288404307749e+03 6.4720482556789934e-13 1.2538358566387219e+03 3.1877112258091470e+03 1.7546889769866353e+04 -999 6.59755828e-01 7.051385999e-02 -2.12637838e-01
 111 5 752103 3.1474006563408143e+03 3.1636192887172210e+03 9.0280858525683164e-13 1.2259161322709865e+03 3.1100303303590172e+03 2.1568663701468096e+04 -999 6.85234368e-01 7.059091435e-02 -2.14482879e-01
 112 5 752103 3.2043832260218292e+03 2.9032771915170133e+03 1.2041472923054891e-12 1.0584783058775440e+03 3.1680442235056303e+03 2.8354689806968800e+04 -999 7.23817741e-01 7.122572121e-02 -2.16205594e-01
 113 5 752103 3.1758344792539465e+03 2.8091939645927828e+03 1.0663835307131127e-12 9.6784009118855568e+02 3.1334951185704231e+03 1.2344784461252581e+04 -999 7.41709451e-01 7.183200967e-02 -2.16394796e-01
 114 5 752103 3.1707940002171731e+03 2.6926524361454462e+03 7.8869256261313847e-13 8.7247352212889905e+02 3.1220726549031733e+03 1.1684131945393996e+04 -999 7.66394562e-01 7.279701260e-02 -2.16192368e-01
 115 5 752103 3.1307244296211966e+03 2.6097161106619737e+03 6.2916205910935476e-13 7.8691761930080588e+02 3.0736069104567800e+03 1.0600124000767582e+04 -999 7.80910820e-01 7.344222857e-02 -2.15724800e-01
 116 5 752103 2.9838199281950392e+03 2.5276385354271461e+03 5.0707121480170030e-13 7.7276493247341136e+02 2.9249992520242304e+03 1.0010725639637956e+04 -999 7.94645611e-01 7.408246164e-02 -2.15044605e-01
 117 5 752103 2.8340059005235839e+03 2.4196667968276793e+03 4.9522824493742332e-13 7.6520939856113807e+02 2.7646914041938148e+03 1.0006628281844789e+04 -999 8.14340414e-01 7.506567790e-02 -2.13740889e-01
 118 5 752103 2.6937952696173393e+03 2.2920948967390841e+03 6.2467400161626264e-13 7.2340630457409293e+02 2.6105060817904155e+03 9.8943107447162529e+03 -999 8.38712635e-01 7.637771662e-02 -2.11494222e-01
 119 5 752103 2.6063998265083123e+03 2.2212831443549726e+03 6.9797952411676674e-13 6.8644936617770179e+02 2.5161620728856565e+03 8.7109046962277662e+03 -999 8.49286040e-01 7.697810816e-02 -2.10142741e-01
 120 5 752103 2.5111203673470177e+03 2.1448586065415993e+03 7.6572950647849625e-13 6.3448309590187591e+02 2.4132282314216691e+03 8.8978011836517580e+03 -999 8.62787385e-01 7.775123185e-02 -2.08221310e-01
 121 5 752103 2.3939143909209042e+03 2.0641168730405429e+03 5.9902691171906644e-13 5.6196289680150039e+02 2.2854062214771561e+03 9.0062937589275789e+03 -999 8.76644875e-01 7.853225433e-02 -2.05959621e-01
 122 5 752103 2.2832986583087513e+03 1.9798082745980200e+03 6.4030887756320409e-13 5.2306619108706582e+02 2.1662294776649746e+03 9.4154238402760857e+03 -999 8.92106626e-01 7.936913491e-02 -2.03256918e-01
 123 5 752103 2.1646215439350499e+03 1.9040635686203782e+03 6.7698094703001463e-13 4.7520550843056327e+02 2.0412386897750600e+03 9.7727779205013740e+03 -999 9.08434945e-01 8.010836266e-02 -2.00141391e-01
 124 5 752103 2.0867173374026547e+03 1.8496668344491511e+03 6.6467082075233275e-13 4.5357957011932342e+02 1.9521737909818373e+03 9.6886478994383688e+03 -999 9.21612590e-01 8.050482196e-02 -1.97719795e-01
 125 5 752103 2.0198552313747730e+03 1.8136061761813289e+03 6.5882909101393444e-13 4.4899275260414748e+02 1.8819709944522544e+03 9.1691101639074695e+03 -999 9.30063218e-01 8.060016121e-02 -1.96327135e-01
 126 5 752103 1.9327321962822998e+03 1.7549674892277128e+03 5.4747388189870459e-13 4.5594738482276438e+02 1.7905801035565351e+03 9.2654673553435896e+03 -999 9.38447708e-01 8.056206277e-02 -1.95137621e-01
 127 5 752103 1.8630902065044750e+03 1.7031639765061375e+03 6.3088320805786025e-13 4.6776254441940745e+02 1.7111921696567506e+03 9.5871371525637769e+03 -999 9.48375272e-01 8.035297003e-02 -1.93921376e-01
 128 5 752103 1.8004539990050127e+03 1.6491685106895907e+03 7.6705019090455126e-13 4.7546580628747199e+02 1.6380909164575398e+03 9.8754567878236285e+03 -999 9.60473479e-01 7.984392143e-02 -1.92714949e-01
 129 5 752103 1.7472452810924842e+03 1.6087439051224342e+03 8.3101226712554017e-13 4.7561907612867259e+02 1.5766826990825246e+03 9.5498972475295814e+03 -999 9.69399847e-01 7.924077848e-02 -1.92105622e-01
 130 5 752103 1.7212277513788431e+03 1.5859195074446079e+03 8.7349843908650391e-13 4.7654609832572447e+02 1.5436689807565913e+03 8.9834939454461473e+03 -999 9.75237296e-01 7.874702055e-02 -1.91831240e-01
 131 5 752103 1.6613208257019248e+03 1.5462077754211068e+03 7.4512598022236297e-13 4.7580750755969808e+02 1.4848855816091784e+03 8.9971659764098240e+03 -999 9.82319356e-01 7.808583569e-02 -1.91667138e-01
 132 5 752103 1.6212696689111542e+03 1.5117188925562577e+03 8.6913256632666961e-13 4.8775813419546256e+02 1.4431965423448914e+03 9.1123614663101198e+03 -999 9.90453843e-01 7.721723910e-02 -1.91516439e-01
 133 5 752103 1.6007985032801785e+03 1.4813303582591006e+03 1.0230257507377418e-12 4.8706395516575861e+02 1.4171760133304704e+03 9.2954991885801373e+03 -999 9.98842553e-01 7.623598358e-02 -1.91439548e-01
 134 5 752103 1.6005314700944887e+03 1.4753104577964095e+03 1.1218029507792060e-12 4.8738365192192754e+02 1.4105219669287958e+03 9.2727167525826408e+03 -999 1.00576529e+00 7.541421902e-02 -1.91483521e-01
 135 5 752103 1.6063414320820780e+03 1.4816140898860315e+03 1.1823330839277527e-12 4.8673784447977658e+02 1.4133340086871622e+03 9.2592757115554668e+03 -999 1.01161383e+00 7.472604606e-02 -1.91585684e-01
 136 5 752103 1.5633856309675314e+03 1.4647075847317078e+03 1.0071898841194683e-12 4.8146606281580705e+02 1.3714668835591385e+03 9.2485405984543468e+03 -999 1.01696357e+00 7.410949594e-02 -1.91732773e-01
 137 5 752103 1.5472262602360008e+03 1.4587036133576510e+03 1.0618545831570986e-12 4.8281184090419686e+02 1.3533424924659100e+03 9.3214879625404155e+03 -999 1.02332769e+00 7.337555552e-02 -1.91898130e-01
 138 5 752103 1.5495322916472458e+03 1.4486722333793462e+03 1.2160350313847671e-12 4.7742860237114365e+02 1.3539837619241496e+03 9.3981069675853214e+03 -999 1.03012159e+00 7.259860559e-02 -1.92050882e-01
 139 5 752103 1.5813372631759896e+03 1.4725604577758304e+03 1.3431878259907764e-12 4.7589954977185357e+02 1.3860097405741860e+03 9.4990294578654521e+03 -999 1.03735432e+00 7.179342275e-02 -1.92187948e-01
 140 5 752103 1.5853396719957625e+03 1.4791378300127567e+03 1.3898949805300490e-12 4.7580435296944120e+02 1.3904189752044897e+03 9.4570221350196080e+03 -999 1.04198941e+00 7.131901127e-02 -1.92298601e-01
 141 5 752103 1.5419301095375922e+03 1.4722800666615810e+03 1.1793793103372060e-12 4.6897526843095335e+02 1.3506461988092437e+03 9.6291126724689602e+03 -999 1.04634034e+00 7.092550111e-02 -1.92457531e-01