TITLE = "005.02 ALPHA 3.25 GRIDLEVEL 4"

VARIABLES = "ITERATION"  "GRID_LEVEL"  "GRID_SIZE"  "CONTINUITY"  "MOMENTUMX"  "MOMENTUMY"  "MOMENTUMZ"  "ENERGY"  "TURB1"  "TURB2"  "CL_TOT"  "CD_TOT"  "CM_TOT"

DATASETAUXDATA ParticipantID   = "005"
DATASETAUXDATA SubmissionDate  = "10-31-2024"
DATASETAUXDATA Name            = "Jeffrey A. Housman"
DATASETAUXDATA Email           = "jeffrey.a.housman@nasa.gov"
DATASETAUXDATA Institution     = "NASA Ames Research Center"
DATASETAUXDATA SolverName      = "LAVA Curvilinear"
DATASETAUXDATA BasicAlgorithm  = "RANS"
DATASETAUXDATA TurbulenceModel = "SA-RC-comp-neg"
DATASETAUXDATA GridId          = "Multiblock"
DATASETAUXDATA Discretization  = "Finite difference"
DATASETAUXDATA Order           = "2"
DATASETAUXDATA DistanceCalc    = "Exact"
DATASETAUXDATA Notes           = " "

ZONE T = "005.02 - Alpha 3.25 - Grid Level 4"
AUXDATA Tstatic         = "271.0"
AUXDATA Deltat          = "-999"
AUXDATA GridFileName    = "ONERA-OAT15A_230mmChord_780mmSpan_upZ_2024_06_25-Structured_23mm_Level-4.x"
AUXDATA Misc            = " "
 0 4 430284 3.7741079019683046e+05 1.0623672997781234e+06 6.4510711212172268e-14 3.5831165522626077e+05 3.9570499736789340e+05 1.8155111334612097e+06 -999 1.36612839e-02 7.531088834e-01 -8.04660475e-03
 1 4 430284 5.4638107516633405e+05 8.1228222646158736e+05 5.5802010997390224e-14 2.7970526695657318e+05 5.3261012186807371e+05 1.1757962689843732e+06 -999 4.95314681e-02 7.036790192e-01 -2.30064108e-02
 2 4 430284 6.6586524121501856e+05 7.0394234605131927e+05 4.9262754117808727e-14 3.0807430763104570e+05 6.3953875515713799e+05 7.6441989497712278e+05 -999 9.17322672e-02 6.780102285e-01 -4.03202010e-02
 3 4 430284 7.7780866219828161e+05 6.3454409394082567e+05 4.4174339372204951e-14 3.6387122276971198e+05 7.4545515783796471e+05 4.9728098436963640e+05 -999 1.29641497e-01 6.634366814e-01 -5.62954421e-02
 4 4 430284 8.7994743252440030e+05 5.8295145692813722e+05 4.0154597826806993e-14 4.3206908808177855e+05 8.5094195429575734e+05 3.1778210553647182e+05 -999 1.63291387e-01 6.555922672e-01 -6.89712013e-02
 5 4 430284 9.8248422019626189e+05 5.8544662899682322e+05 3.6959288231741286e-14 5.0504757622128836e+05 9.6911898251004692e+05 2.0252044197919840e+05 -999 1.89123452e-01 6.502944209e-01 -7.84021307e-02
 6 4 430284 9.0110737535594916e+05 6.2553406556779228e+05 3.4505457066641688e-14 5.3354028584859113e+05 8.9148144748410664e+05 1.0171136283690567e+05 -999 2.07018902e-01 6.389121329e-01 -8.56049087e-02
 7 4 430284 9.2394287072834850e+05 6.4023942290951568e+05 3.2276535262774081e-14 5.5588540350868355e+05 9.1014843245705322e+05 8.0348847208524239e+04 -999 2.21632684e-01 6.242619661e-01 -9.20059578e-02
 8 4 430284 9.8397317406141269e+05 6.3330386854830000e+05 3.0634923027081950e-14 5.6767444232789672e+05 9.9019698682171933e+05 6.8795760823049961e+04 -999 2.32975238e-01 6.078305967e-01 -9.67936853e-02
 9 4 430284 1.1854789050684422e+06 6.8835002171538037e+05 2.9220468251118469e-14 6.2492884647272399e+05 1.2325022782911223e+06 6.1567840483179192e+04 -999 2.44485811e-01 5.876885387e-01 -1.01193721e-01
 10 4 430284 1.1115754759497549e+06 5.8387238700639096e+05 2.8426006393081966e-14 5.9468724373203004e+05 1.1502118844892706e+06 5.5441502098808560e+04 -999 2.50511497e-01 5.759036018e-01 -1.03422044e-01
 11 4 430284 1.0216638677061187e+06 5.6997168585158733e+05 2.7469545367353305e-14 5.8098923461371264e+05 1.0411019822863351e+06 4.9947927565396305e+04 -999 2.57497857e-01 5.614397277e-01 -1.06094323e-01
 12 4 430284 9.5061108748873277e+05 5.7429812314838148e+05 2.6709916574658348e-14 5.5824583326292958e+05 9.6222167503700079e+05 4.5618943075437513e+04 -999 2.63067419e-01 5.490360283e-01 -1.08144470e-01
 13 4 430284 1.0513749296553400e+06 5.8462008697077387e+05 2.6147684433410555e-14 5.7954745251052117e+05 1.0818431946245674e+06 4.2405274977522698e+04 -999 2.68587127e-01 5.355353850e-01 -1.10168477e-01
 14 4 430284 9.8201076170567039e+05 5.1546113532998553e+05 2.5728581786903503e-14 5.4436399655599333e+05 1.0065562578798690e+06 3.9556123439138864e+04 -999 2.71445810e-01 5.275774988e-01 -1.11271131e-01
 15 4 430284 1.1536034767673120e+06 6.5662562962535978e+05 2.5327076632683189e-14 5.8966773851864063e+05 1.2287604129869088e+06 3.7235212726273297e+04 -999 2.74591066e-01 5.181202114e-01 -1.12594892e-01
 16 4 430284 9.7543778967530828e+05 5.8143802386431396e+05 2.4885145920195797e-14 5.3178600916508026e+05 1.0335215616220823e+06 3.4114697346234221e+04 -999 2.76525218e-01 5.112576404e-01 -1.13474878e-01
 17 4 430284 8.6672373797362042e+05 4.8346786128436035e+05 2.4374557332286740e-14 5.0022813086671947e+05 8.8054999685414252e+05 3.1622721962344829e+04 -999 2.78815352e-01 5.023175492e-01 -1.14502723e-01
 18 4 430284 8.2480145012425189e+05 4.7390326865529048e+05 2.3958945741718704e-14 4.7910513042774104e+05 8.3385908775785891e+05 2.9529977765928317e+04 -999 2.80431289e-01 4.951088504e-01 -1.15175959e-01
 19 4 430284 9.5896959080998681e+05 5.1372638817263482e+05 2.3602386836907023e-14 4.9445409713188984e+05 1.0072614086385597e+06 2.7821462001577303e+04 -999 2.81973956e-01 4.875734064e-01 -1.15745426e-01
 20 4 430284 8.7996271836100426e+05 4.1949121982327267e+05 2.3407913341333000e-14 4.6840856684680999e+05 9.1251027462013310e+05 2.6261499085084975e+04 -999 2.82895517e-01 4.826613793e-01 -1.16035300e-01
 21 4 430284 8.0231289261125645e+05 4.2642968312056473e+05 2.3086900994735933e-14 4.4728538934883318e+05 8.2978753685196885e+05 2.4280908361948419e+04 -999 2.83797400e-01 4.770652566e-01 -1.16294646e-01
 22 4 430284 7.2115620948362909e+05 4.1264629570747964e+05 2.2738480510697729e-14 4.1747583184218709e+05 7.3791682902777893e+05 2.2677488120501359e+04 -999 2.84710881e-01 4.709369489e-01 -1.16545754e-01
 23 4 430284 7.4301661757143727e+05 4.1276633598196215e+05 2.2433745878712866e-14 4.1024751733729301e+05 7.6081626539154386e+05 2.1352896466711372e+04 -999 2.85615140e-01 4.642357175e-01 -1.16790490e-01
 24 4 430284 7.4458699190222635e+05 3.7328554504659539e+05 2.2274138508815154e-14 4.0143823144060664e+05 7.6154765047489712e+05 2.0183641597342335e+04 -999 2.86237186e-01 4.591089900e-01 -1.16963477e-01
 25 4 430284 8.0869503481603996e+05 4.1391937659564131e+05 2.2143829371856462e-14 4.0074117627753585e+05 8.5439345012114418e+05 1.9113866503707850e+04 -999 2.86747421e-01 4.546091854e-01 -1.17111717e-01
 26 4 430284 6.8219033136736264e+05 3.6755183731414058e+05 2.1905614593233223e-14 3.6939493347990065e+05 7.1825801780386979e+05 1.7748638806706240e+04 -999 2.87181678e-01 4.499975867e-01 -1.17237856e-01
 27 4 430284 6.0165254241175205e+05 3.4787905932848965e+05 2.1673427107871565e-14 3.4554459378705377e+05 6.1719346396365843e+05 1.6640039920510306e+04 -999 2.87626092e-01 4.450650428e-01 -1.17370319e-01
 28 4 430284 6.1204842128031410e+05 3.3784146874169906e+05 2.1480935140449495e-14 3.3493576291594008e+05 6.2373234790357505e+05 1.5714149960760451e+04 -999 2.88094856e-01 4.396706471e-01 -1.17513467e-01
 29 4 430284 6.2583747961166431e+05 3.1751864307037502e+05 2.1343895518714466e-14 3.2826762828697474e+05 6.4367822968549747e+05 1.4907787101393122e+04 -999 2.88438749e-01 4.356029459e-01 -1.17619936e-01
 30 4 430284 6.8922491171602451e+05 3.6441278800656751e+05 2.1220308702738781e-14 3.3070012227556657e+05 7.3219737694212317e+05 1.4178396139119684e+04 -999 2.88740111e-01 4.319661465e-01 -1.17712194e-01
 31 4 430284 5.7822589131015493e+05 3.1831947048002109e+05 2.0994757984230234e-14 3.0257946233090392e+05 6.1471582056614826e+05 1.3183055101184778e+04 -999 2.88989769e-01 4.283955216e-01 -1.17782610e-01
 32 4 430284 4.9231973036665987e+05 2.8857869719169463e+05 2.0734730717494594e-14 2.7793178220032935e+05 5.0929852064853418e+05 1.2351643477268393e+04 -999 2.89274745e-01 4.242928359e-01 -1.17862258e-01
 33 4 430284 4.7741130971723358e+05 2.7511444210769690e+05 2.0501646892478187e-14 2.6287010899892502e+05 4.8498404757287243e+05 1.1647911085165304e+04 -999 2.89565979e-01 4.200700814e-01 -1.17943564e-01
 34 4 430284 5.3384581491034082e+05 2.8327922912052338e+05 2.0334512175880889e-14 2.6290322873198998e+05 5.5432554448021273e+05 1.1040212433604589e+04 -999 2.89838411e-01 4.160816391e-01 -1.18019968e-01
 35 4 430284 5.2964638452366600e+05 2.6204941096645480e+05 2.0239716083572216e-14 2.5731523316104239e+05 5.5403621969321254e+05 1.0490738710468908e+04 -999 2.90025830e-01 4.133030355e-01 -1.18072874e-01
 36 4 430284 4.5877853862257558e+05 2.5227559532623657e+05 2.0026983168795040e-14 2.3741851334586879e+05 4.8417444612056192e+05 9.7846800492115472e+03 -999 2.90207908e-01 4.101769383e-01 -1.18121190e-01
 37 4 430284 3.8817819726869755e+05 2.3076499756037039e+05 1.9782753087686309e-14 2.1585364879840368e+05 4.0343118497037876e+05 9.1898038226851950e+03 -999 2.90411557e-01 4.067332148e-01 -1.18176176e-01
 38 4 430284 3.6931166345912777e+05 2.1453361655696543e+05 1.9539915947856475e-14 2.0134802260507116e+05 3.7368335136068618e+05 8.6581071430627890e+03 -999 2.90637878e-01 4.029566881e-01 -1.18238215e-01
 39 4 430284 3.9962085782564618e+05 2.1421993171392381e+05 1.9371161216516175e-14 1.9781428044676076e+05 4.1197854018049984e+05 8.1927663515654895e+03 -999 2.90835770e-01 3.996919880e-01 -1.18293204e-01
 40 4 430284 4.2779644835690438e+05 2.3301710888541784e+05 1.9262981917843015e-14 1.9706082626565560e+05 4.5338468831214606e+05 7.7797228555107849e+03 -999 2.90992545e-01 3.971236750e-01 -1.18337299e-01
 41 4 430284 3.6282773053044360e+05 2.0384734967177946e+05 1.9042832549382274e-14 1.8040453855704991e+05 3.8739459626548813e+05 7.2582108794417663e+03 -999 2.91133627e-01 3.945114725e-01 -1.18374633e-01
 42 4 430284 2.9898180860280624e+05 1.8445068585118232e+05 1.8781015552314422e-14 1.6324793609329261e+05 3.1368298242223932e+05 6.8127828206867080e+03 -999 2.91300692e-01 3.914918368e-01 -1.18419589e-01
 43 4 430284 2.7384687237198028e+05 1.6846242773144046e+05 1.8501838712899306e-14 1.5024407856212396e+05 2.7716460255140834e+05 6.4160628819675449e+03 -999 2.91483908e-01 3.882569506e-01 -1.18469664e-01
 44 4 430284 2.9465704234823870e+05 1.6978293281232251e+05 1.8274859607818851e-14 1.4564261022093782e+05 3.0212175059800467e+05 6.0586231287475903e+03 -999 2.91653407e-01 3.853231385e-01 -1.18516631e-01
 45 4 430284 3.2594152626845345e+05 1.8143411846104625e+05 1.8103312563882423e-14 1.4594801949837495e+05 3.4231852553411876e+05 5.7396793947253473e+03 -999 2.91804892e-01 3.827347491e-01 -1.18559122e-01
 46 4 430284 2.7572516989234916e+05 1.6294276207261003e+05 1.7888930836385316e-14 1.3344906720989288e+05 2.9532979621171264e+05 5.3247215624028622e+03 -999 2.91925820e-01 3.804379079e-01 -1.18591155e-01
 47 4 430284 2.2074354386959181e+05 1.4345494501145376e+05 1.7627923273421160e-14 1.1894926440546839e+05 2.3451223027243908e+05 4.9700688344131177e+03 -999 2.92074711e-01 3.776926869e-01 -1.18631023e-01
 48 4 430284 1.9366243235871472e+05 1.2951893565431306e+05 1.7337197404884925e-14 1.0711510180962599e+05 1.9723259595407840e+05 4.6620673947623409e+03 -999 2.92243251e-01 3.746608961e-01 -1.18676848e-01
 49 4 430284 2.0269919709650139e+05 1.2825525964581943e+05 1.7097044374261605e-14 1.0148880854799705e+05 2.0760574220052242e+05 4.3597632385069683e+03 -999 2.92402192e-01 3.718652185e-01 -1.18720765e-01
 50 4 430284 2.1993896773027079e+05 1.3667816254513548e+05 1.6911029432787954e-14 9.9458021875199935e+04 2.3225553066051405e+05 4.1027856407866557e+03 -999 2.92539300e-01 3.694904775e-01 -1.18759334e-01
 51 4 430284 1.8643854252514316e+05 1.1978371545442191e+05 1.6711923518181805e-14 9.0719242802389199e+04 2.0037503090157168e+05 3.7625676076468771e+03 -999 2.92656902e-01 3.672704044e-01 -1.18790934e-01
 52 4 430284 1.4982472737873174e+05 1.0604680327739683e+05 1.6465680955754530e-14 8.1117195417791794e+04 1.6111164970466780e+05 3.4667289030874990e+03 -999 2.92797540e-01 3.646715536e-01 -1.18829365e-01
 53 4 430284 1.2743456831651019e+05 9.5855865735158295e+04 1.6181538486222769e-14 7.2288859179130595e+04 1.3273629460333567e+05 3.2015363192274776e+03 -999 2.92962055e-01 3.616968050e-01 -1.18875217e-01
 54 4 430284 1.2647641423823177e+05 9.2209419814786350e+04 1.5931146480912668e-14 6.7003769244335737e+04 1.3036684724607474e+05 2.9691744401830297e+03 -999 2.93121420e-01 3.588717899e-01 -1.18920872e-01
 55 4 430284 1.3087247195005842e+05 9.2363500030475276e+04 1.5727089859071403e-14 6.3998189395182599e+04 1.3706511085525842e+05 2.7715672141311861e+03 -999 2.93263308e-01 3.563871883e-01 -1.18963063e-01
 56 4 430284 1.1270926779941800e+05 8.4927984846121501e+04 1.5537374337397408e-14 5.9076142720116484e+04 1.2026259832713688e+05 2.4972731667953781e+03 -999 2.93379898e-01 3.541696396e-01 -1.18997309e-01
 57 4 430284 9.1375902563277457e+04 7.7590066407765058e+04 1.5297999853666749e-14 5.3342125017393271e+04 9.8356860125809471e+04 2.2566649537623530e+03 -999 2.93523441e-01 3.514822983e-01 -1.19040364e-01
 58 4 430284 7.5622234927634723e+04 7.1053750243017290e+04 1.4998949533400477e-14 4.7617761071026995e+04 7.9926855436431084e+04 2.0505118672194462e+03 -999 2.93694494e-01 3.483306727e-01 -1.19093198e-01
 59 4 430284 7.0411905061844416e+04 6.7174632976132052e+04 1.4721959518964260e-14 4.3506381970238253e+04 7.3176894866544142e+04 1.8764505746659122e+03 -999 2.93865647e-01 3.452161323e-01 -1.19148585e-01
 60 4 430284 6.8346331312634808e+04 6.4740666820890096e+04 1.4498014158237488e-14 4.0659943155939887e+04 7.1029281069431352e+04 1.7295297456696273e+03 -999 2.94020789e-01 3.424023257e-01 -1.19202194e-01
 61 4 430284 5.9681398595160979e+04 6.1294391747354566e+04 1.4282845152157084e-14 3.7725992383866520e+04 6.2762085074504677e+04 1.5410028504534184e+03 -999 2.94141186e-01 3.399467976e-01 -1.19242621e-01
 62 4 430284 4.9471817736018093e+04 5.7550023763155776e+04 1.4003095340025841e-14 3.4274015556467966e+04 5.2182004688968016e+04 1.3821442752062439e+03 -999 2.94288365e-01 3.369429762e-01 -1.19292669e-01
 63 4 430284 4.0978292593620587e+04 5.3721701005777541e+04 1.3664710896960469e-14 3.0568752321073531e+04 4.2531319972714933e+04 1.2502129965246934e+03 -999 2.94464310e-01 3.333278241e-01 -1.19353850e-01
 64 4 430284 3.6552308178875450e+04 5.0666055528447265e+04 1.3334708972302714e-14 2.7537815009281043e+04 3.7339374101761008e+04 1.1432144342316283e+03 -999 2.94635897e-01 3.297311153e-01 -1.19416374e-01
 65 4 430284 3.3683693907903267e+04 4.8253540118477504e+04 1.3044767587047832e-14 2.5186560003405288e+04 3.4139246195994645e+04 1.0563950020084440e+03 -999 2.94788443e-01 3.264137816e-01 -1.19476358e-01
 66 4 430284 2.9924609399425448e+04 4.5949128763413675e+04 1.2799425599416057e-14 2.3243972406369809e+04 3.0372819165610574e+04 9.5292989705044761e+02 -999 2.94882681e-01 3.233435291e-01 -1.19505058e-01
 67 4 430284 2.5604077056310158e+04 4.3290338130213873e+04 1.2476899604883121e-14 2.0834717923795575e+04 2.5882248036502831e+04 8.7066940737874893e+02 -999 2.94991886e-01 3.194550565e-01 -1.19530890e-01
 68 4 430284 2.1857135365985370e+04 4.0427030184564544e+04 1.2089671364167960e-14 1.8306191438791426e+04 2.1929981143342855e+04 8.1557852123495866e+02 -999 2.95108686e-01 3.146817767e-01 -1.19550669e-01
 69 4 430284 1.9535969840300189e+04 3.7969890432142456e+04 1.1717684191452246e-14 1.6276757213352705e+04 1.9659550238375217e+04 8.0740384484215065e+02 -999 2.95205925e-01 3.098667214e-01 -1.19557911e-01
 70 4 430284 1.8043224091796059e+04 3.5964491283619143e+04 1.1401311166174857e-14 1.4782335705179492e+04 1.8379614797579659e+04 8.1300552876571624e+02 -999 2.95280070e-01 3.052937094e-01 -1.19555498e-01
 71 4 430284 1.6267791359559462e+04 3.3922894812312152e+04 1.1070071590807877e-14 1.3472620895675554e+04 1.6941784148728413e+04 8.4554125567976371e+02 -999 2.95292315e-01 3.001309474e-01 -1.19475885e-01
 72 4 430284 1.4705341946459555e+04 3.1626710936867486e+04 1.0681711859372224e-14 1.2288918335981780e+04 1.5783196030235056e+04 9.2569544145318025e+02 -999 2.95326640e-01 2.932844519e-01 -1.19360078e-01
 73 4 430284 1.4017637581491095e+04 2.9370981169995044e+04 1.0285113756799726e-14 1.1625154291472501e+04 1.5506139552589484e+04 1.1267359902936837e+03 -999 2.95423427e-01 2.847914512e-01 -1.19220497e-01
 74 4 430284 1.4185330661994571e+04 2.7620661072381499e+04 9.9615243874093218e-15 1.1569136802842711e+04 1.5987850563962995e+04 1.4779343250680076e+03 -999 2.95619125e-01 2.760907508e-01 -1.19113023e-01
 75 4 430284 1.4628838689095895e+04 2.6292755788478564e+04 9.7226715392265775e-15 1.1735049340900590e+04 1.6656129146550906e+04 1.9886885262339795e+03 -999 2.95933356e-01 2.674233358e-01 -1.19072960e-01
 76 4 430284 1.4294686428044657e+04 2.4239420705868954e+04 9.3971147128392998e-15 1.0873756791527177e+04 1.6510391824492654e+04 3.6788184926375702e+03 -999 2.96602653e-01 2.552644237e-01 -1.19164145e-01
 77 4 430284 1.4399030135885016e+04 2.2556807065888272e+04 9.2170903213203267e-15 1.0325529776292215e+04 1.6624820257251122e+04 1.0335619880733344e+04 -999 2.97866321e-01 2.381570776e-01 -1.19589330e-01
 78 4 430284 1.4639094069183970e+04 2.2362582969523733e+04 9.1401958686803797e-15 1.0232266209577803e+04 1.6658739793977104e+04 2.4267526740793382e+04 -999 2.99535290e-01 2.194224718e-01 -1.20603161e-01
 79 4 430284 1.4797566240225251e+04 2.3013859762868949e+04 8.9858011850332023e-15 1.0353118152275219e+04 1.6512802502595754e+04 5.2489649438515415e+04 -999 3.01044720e-01 2.008215263e-01 -1.22267973e-01
 80 4 430284 1.5232798665602570e+04 2.6086681564109513e+04 8.7003613755240330e-15 1.0593354625664901e+04 1.7530906170687598e+04 1.1872212853789610e+05 -999 3.01781509e-01 1.819147472e-01 -1.24543704e-01
 81 4 430284 1.2753083259133098e+04 1.8823768888526651e+04 8.0214839156967571e-15 9.6432746914164291e+03 1.3599647297555664e+04 2.0787395426099270e+05 -999 3.00832686e-01 1.563310528e-01 -1.28216477e-01
 82 4 430284 1.1103532956814002e+04 1.8412989253849151e+04 7.1837809066831460e-15 8.8201365005982807e+03 1.1936427334178032e+04 2.1222692011211146e+05 -999 2.97255153e-01 1.363771381e-01 -1.30815763e-01
 83 4 430284 1.0650342651406827e+04 2.7246733057070567e+04 6.5945004915363564e-15 8.2848998772670275e+03 1.2703281578193035e+04 1.3316030878042820e+05 -999 2.95828188e-01 1.324264034e-01 -1.31003244e-01
 84 4 430284 1.0481186272001494e+04 2.8131925191072085e+04 6.3876697370088895e-15 8.0144265646394897e+03 1.3055308726437197e+04 7.5818955636513783e+04 -999 2.95261739e-01 1.310038836e-01 -1.31025382e-01
 85 4 430284 1.0360567548332872e+04 2.7228683484249097e+04 6.2946482260299306e-15 7.8439055317239881e+03 1.3010171667165743e+04 3.8399838962559406e+04 -999 2.94834048e-01 1.299483596e-01 -1.31030864e-01
 86 4 430284 9.0471670388762377e+03 1.8346406721140360e+04 6.0764731603421843e-15 6.3966960154716053e+03 9.6796673052157694e+03 1.3842687124233131e+05 -999 2.91051365e-01 1.211366685e-01 -1.30735310e-01
 87 4 430284 8.1653042685206638e+03 1.5476657429437899e+04 5.7367362004365770e-15 5.5743534033346841e+03 8.3536574955053584e+03 7.8050499847611791e+04 -999 2.88801060e-01 1.148322726e-01 -1.30263283e-01
 88 4 430284 7.6582727309824286e+03 1.3862490552284504e+04 5.4565389855589477e-15 5.0483407117278903e+03 7.6834516948687760e+03 3.6475830515587826e+04 -999 2.88089510e-01 1.105103246e-01 -1.29921739e-01
 89 4 430284 7.3444974777006819e+03 1.3005026487055369e+04 5.2144084099029249e-15 4.8165282362320504e+03 7.3190539241753131e+03 1.5680760906206238e+04 -999 2.88275007e-01 1.082271293e-01 -1.29808056e-01
 90 4 430284 7.4924020428409185e+03 1.2079190683917854e+04 5.2513774503831791e-15 4.6340591637593225e+03 7.4199897661312061e+03 1.6905837270645792e+04 -999 2.88972459e-01 1.055304548e-01 -1.29764407e-01
 91 4 430284 5.9197750516039623e+03 9.6156608938862410e+03 1.3353809186724033e-13 3.9541389655393305e+03 5.7920274505786901e+03 4.6205754384113432e+04 -999 2.96009736e-01 9.945650750e-02 -1.31100518e-01
 92 4 430284 5.4876216568187892e+03 8.3841111390162805e+03 2.4781545107071785e-13 3.8346040359611393e+03 5.3216678443373567e+03 7.4052720335780177e+04 -999 3.15173846e-01 8.908774558e-02 -1.35325318e-01
 93 4 430284 5.6302065299079250e+03 9.2824125564485548e+03 2.2549040659491100e-13 3.5224988212701696e+03 5.5204090853244843e+03 5.1535666433490696e+04 -999 3.37334660e-01 8.349069223e-02 -1.41592765e-01
 94 4 430284 5.7946721514462570e+03 9.0542681793563843e+03 2.0489691783089483e-13 3.2432864091005990e+03 5.9247197544505761e+03 5.3993342370438048e+04 -999 3.57126525e-01 8.013846508e-02 -1.47843527e-01
 95 4 430284 5.2787206576165609e+03 7.9411491935316608e+03 2.0177070585715511e-13 2.7591501570062087e+03 5.5211492623887443e+03 2.5835578738691722e+04 -999 3.71902499e-01 7.832112879e-02 -1.52688646e-01
 96 4 430284 3.4599216399736747e+03 4.7302191899513764e+03 1.3130151224646228e-12 2.3111909778256040e+03 3.5629940215457691e+03 4.1640270814447598e+04 -999 4.02110975e-01 7.528532078e-02 -1.62512028e-01
 97 4 430284 2.9613366091139364e+03 3.6202396495148505e+03 2.5746064273679043e-12 1.9025228860121483e+03 2.9343476093001605e+03 5.2529824652680858e+04 -999 4.38444898e-01 7.188804326e-02 -1.73580660e-01
 98 4 430284 2.8333297484322575e+03 3.5340201262283585e+03 3.4747254839699804e-12 1.6196491976502123e+03 2.7084669224881559e+03 8.2306848046004452e+04 -999 4.76631361e-01 6.886615346e-02 -1.83713020e-01
 99 4 430284 2.8344465921484475e+03 3.6058837532217358e+03 4.4752744756549230e-12 1.4155949134163707e+03 2.6986365178799006e+03 9.3404850792363373e+04 -999 5.17684281e-01 6.642134453e-02 -1.92643472e-01
 100 4 430284 3.0507537962914266e+03 3.7605519278724164e+03 5.0763382676583015e-12 1.2264568540972984e+03 2.9370572860590992e+03 9.2320511081646575e+04 -999 5.60802960e-01 6.463218302e-02 -1.99830047e-01
 101 4 430284 2.7306729107023630e+03 3.0435610085184294e+03 4.5687559985023759e-12 1.1036369402701550e+03 2.6465476564269902e+03 5.8420229963489277e+04 -999 5.98446498e-01 6.384180381e-02 -2.04525370e-01
 102 4 430284 2.6494511296455789e+03 2.7402224140809753e+03 4.6917307471333404e-12 8.8270045017550058e+02 2.5706690772107386e+03 2.5302269531022652e+04 -999 6.31441917e-01 6.358272743e-02 -2.07138592e-01
 103 4 430284 2.5698944656851686e+03 2.5491568508918504e+03 4.4947937142746108e-12 7.5746082738262442e+02 2.4848794592106019e+03 1.5566285115523651e+04 -999 6.52991194e-01 6.375442835e-02 -2.08111278e-01
 104 4 430284 2.5205615689180217e+03 2.3515887051750619e+03 4.1253403885844428e-12 6.6432144767297700e+02 2.4348888760374307e+03 1.5083997747149031e+04 -999 6.75337381e-01 6.416705090e-02 -2.08638370e-01
 105 4 430284 2.5204254473285409e+03 2.1947040905762428e+03 3.5832139575671091e-12 5.9372530658072355e+02 2.4402369152122924e+03 1.3107743496904839e+04 -999 7.00466760e-01 6.490629880e-02 -2.08685441e-01
 106 4 430284 2.3385114227476006e+03 2.0840705123218004e+03 2.9657399712766725e-12 5.7713252585214036e+02 2.2539018826162805e+03 1.0914498727115280e+04 -999 7.21732554e-01 6.596100501e-02 -2.08420729e-01
 107 4 430284 2.2074820294899432e+03 1.9522913473955928e+03 2.3726651602500500e-12 5.7496529110686674e+02 2.1332108996803800e+03 1.0036675731779651e+04 -999 7.51545321e-01 6.751191748e-02 -2.07300134e-01
 108 4 430284 2.1098574406827911e+03 1.8185810201253057e+03 1.9791592415954974e-12 5.1124528350097302e+02 2.0403780463151199e+03 9.4138960456661080e+03 -999 7.87670602e-01 6.956039564e-02 -2.04794972e-01
 109 4 430284 2.0183309714284756e+03 1.7495019549792214e+03 1.8956920530077070e-12 4.7076872983373727e+02 1.9429423450870747e+03 8.0423787249599272e+03 -999 8.00944615e-01 7.034259541e-02 -2.03390373e-01
 110 4 430284 1.9228338161064389e+03 1.6747086065307672e+03 1.7868697549136525e-12 4.2862743539693867e+02 1.8451674186635601e+03 7.9200834500623459e+03 -999 8.17621282e-01 7.129542917e-02 -2.01448388e-01
 111 4 430284 1.7437065590756854e+03 1.5653343218830626e+03 1.5803393742836900e-12 4.4089327854622468e+02 1.6624999180498839e+03 7.9373565849187653e+03 -999 8.42048601e-01 7.250852287e-02 -1.97974198e-01
 112 4 430284 1.6007940057695043e+03 1.4645126341796072e+03 1.4618835039597498e-12 4.0468118509015977e+02 1.5124716451320446e+03 7.9355743635972067e+03 -999 8.63074014e-01 7.314022094e-02 -1.94685041e-01
 113 4 430284 1.4628283817076313e+03 1.3738522381553353e+03 1.3531711170491886e-12 3.7549244412865528e+02 1.3655880286846987e+03 8.2033782605738415e+03 -999 8.83675911e-01 7.314845641e-02 -1.91662480e-01
 114 4 430284 1.3866838746872190e+03 1.3003164472939441e+03 1.3106206389043355e-12 3.5211129344853003e+02 1.2750730755431375e+03 8.3929913498225196e+03 -999 9.01637694e-01 7.244003782e-02 -1.89451493e-01
 115 4 430284 1.3224345120181131e+03 1.2641547777914500e+03 1.3147584456771471e-12 3.3828396249013360e+02 1.2055959689198885e+03 7.9750774785081503e+03 -999 9.10161313e-01 7.173676313e-02 -1.88668748e-01
 116 4 430284 1.2712078736059257e+03 1.2229713553361335e+03 1.1870566671599608e-12 3.2795338212760731e+02 1.1493554496546640e+03 7.8073090145235064e+03 -999 9.17089530e-01 7.102154756e-02 -1.88267090e-01
 117 4 430284 1.2230257896418536e+03 1.1853963617087331e+03 1.1255169855707025e-12 3.2357672857160463e+02 1.0948490359830814e+03 8.0296288063243510e+03 -999 9.26285888e-01 6.998565369e-02 -1.87897290e-01
 118 4 430284 1.1821829757765488e+03 1.1494847106655873e+03 1.1142619149313331e-12 3.2371120793367891e+02 1.0482679229889745e+03 8.1318671340167712e+03 -999 9.38949601e-01 6.843492505e-02 -1.87613302e-01
 119 4 430284 1.1559824940587705e+03 1.1313322644298432e+03 1.1056814494873114e-12 3.2383646396815351e+02 1.0202943068591708e+03 7.8045274831366241e+03 -999 9.46878304e-01 6.739570368e-02 -1.87557395e-01
 120 4 430284 1.1384488106620313e+03 1.1319453395847670e+03 1.1028312860446730e-12 3.2425023677065747e+02 1.0021323348101223e+03 7.6463586759136024e+03 -999 9.53055870e-01 6.658176498e-02 -1.87537717e-01
 121 4 430284 1.1111573157146636e+03 1.1322764389798970e+03 9.1249391608364804e-13 3.2553835295867475e+02 9.7402419188857971e+02 7.8009305490502766e+03 -999 9.60170313e-01 6.564824714e-02 -1.87527049e-01
 122 4 430284 1.0966433908150982e+03 1.1284717364435471e+03 8.2542607396555249e-13 3.2575586241125131e+02 9.5781848489279571e+02 7.8958551286137281e+03 -999 9.68864460e-01 6.458266745e-02 -1.87580638e-01
 123 4 430284 1.0932263588269309e+03 1.1173048053221430e+03 8.2253367080423926e-13 3.2333464475217545e+02 9.5331309025032260e+02 8.0421785261854457e+03 -999 9.78319920e-01 6.348835586e-02 -1.87630553e-01
 124 4 430284 1.0897217294791590e+03 1.1183412268905729e+03 8.2737171457356965e-13 3.2166701330922854e+02 9.5048757618820980e+02 8.3243713617874400e+03 -999 9.85895850e-01 6.268426347e-02 -1.87654423e-01
 125 4 430284 1.0987965768211059e+03 1.1302085245591381e+03 8.2721950763268854e-13 3.2182835577443228e+02 9.5831844022272014e+02 8.7123875447565915e+03 -999 9.92318835e-01 6.205255004e-02 -1.87637633e-01
 126 4 430284 1.0821522258667662e+03 1.1257162662891878e+03 7.0877190726471030e-13 3.2094006423981409e+02 9.4198287810045213e+02 9.1989380945861903e+03 -999 9.97637071e-01 6.152764365e-02 -1.87512489e-01
 127 4 430284 1.0814372063112248e+03 1.1112237541582363e+03 6.5551910111336057e-13 3.2051617514311249e+02 9.4200910462968136e+02 9.6860652052656133e+03 -999 1.00395887e+00 6.096246247e-02 -1.87353977e-01
 128 4 430284 1.0868415239276753e+03 1.0941941559483453e+03 6.5695510021580595e-13 3.1792329759921432e+02 9.4904825697138949e+02 1.0154751396108815e+04 -999 1.01058875e+00 6.044933634e-02 -1.87183419e-01
 129 4 430284 1.1197666938777761e+03 1.0974775533313884e+03 6.7284419039761064e-13 3.1718391915791966e+02 9.8031582955566228e+02 1.0715246377259884e+04 -999 1.01805657e+00 5.994737871e-02 -1.86953847e-01
 130 4 430284 1.1298575971610940e+03 1.0870077693537080e+03 6.7847376896001622e-13 3.1635166004817978e+02 9.8993122715557161e+02 1.1290196146673168e+04 -999 1.02138672e+00 5.974006133e-02 -1.86786410e-01
 131 4 430284 1.0973015131464695e+03 1.0834385794394095e+03 6.1347433943471294e-13 3.1345344056708490e+02 9.6139303892161411e+02 1.1957685351543148e+04 -999 1.02496455e+00 5.952297706e-02 -1.86558311e-01
 132 4 430284 1.0818669028119771e+03 1.0711617062778398e+03 6.3556589267676359e-13 3.1268650384736577e+02 9.4825238286183992e+02 1.2609819841880109e+04 -999 1.02967917e+00 5.926986079e-02 -1.86258379e-01
 133 4 430284 1.0971574780235949e+03 1.0529441587155072e+03 7.2424615662595235e-13 3.1237675009482319e+02 9.6370770119891131e+02 1.3263249164171139e+04 -999 1.03527731e+00 5.902178418e-02 -1.85915483e-01
 134 4 430284 1.1151014246138036e+03 1.0506202495476427e+03 7.7426689466510775e-13 3.1119723580086986e+02 9.8361887152951874e+02 1.3917270908791077e+04 -999 1.03906335e+00 5.888269263e-02 -1.85668208e-01
 135 4 430284 1.1238378211867791e+03 1.0538331764615898e+03 8.0334995825896531e-13 3.1059812928815785e+02 9.9573684633634252e+02 1.4501888714097597e+04 -999 1.04252769e+00 5.876754148e-02 -1.85420957e-01
 136 4 430284 1.0927687331775217e+03 1.0528202775736233e+03 6.9202574004288739e-13 3.1038312436461149e+02 9.6510519324352242e+02 1.4894911769991370e+04 -999 1.04498133e+00 5.865672817e-02 -1.85117822e-01
 137 4 430284 1.0838431018006381e+03 1.0484429160782549e+03 6.0927930888277423e-13 3.1342074145342582e+02 9.5528422367618430e+02 1.5485477149198096e+04 -999 1.04802376e+00 5.853323922e-02 -1.84746278e-01
 138 4 430284 1.0875956337556981e+03 1.0331186839594416e+03 5.7578209868615112e-13 3.1572813447821363e+02 9.6037414720751576e+02 1.6124630763313209e+04 -999 1.05152680e+00 5.841311580e-02 -1.84340362e-01
 139 4 430284 1.1051207545871996e+03 1.0349851649750779e+03 5.7721198147381370e-13 3.1774925840761608e+02 9.7929722162799817e+02 1.6454102753913161e+04 -999 1.05534395e+00 5.829937592e-02 -1.83906882e-01
 140 4 430284 1.1213234673431346e+03 1.0446226436500681e+03 5.8365998392771657e-13 3.1849106352967425e+02 9.9491767452659474e+02 1.6726967724624054e+04 -999 1.05755493e+00 5.822978530e-02 -1.83620149e-01
 141 4 430284 1.0921135281033328e+03 1.0334024875568878e+03 5.1845549416020123e-13 3.2115629367082721e+02 9.6683306808138013e+02 1.6853144802034130e+04 -999 1.05915976e+00 5.816143919e-02 -1.83353844e-01