TITLE = "005.02 ALPHA 1.50 GRIDLEVEL 4"

VARIABLES = "ITERATION"  "GRID_LEVEL"  "GRID_SIZE"  "CONTINUITY"  "MOMENTUMX"  "MOMENTUMY"  "MOMENTUMZ"  "ENERGY"  "TURB1"  "TURB2"  "CL_TOT"  "CD_TOT"  "CM_TOT"

DATASETAUXDATA ParticipantID   = "005"
DATASETAUXDATA SubmissionDate  = "10-31-2024"
DATASETAUXDATA Name            = "Jeffrey A. Housman"
DATASETAUXDATA Email           = "jeffrey.a.housman@nasa.gov"
DATASETAUXDATA Institution     = "NASA Ames Research Center"
DATASETAUXDATA SolverName      = "LAVA Curvilinear"
DATASETAUXDATA BasicAlgorithm  = "RANS"
DATASETAUXDATA TurbulenceModel = "SA-RC-comp-neg"
DATASETAUXDATA GridId          = "Multiblock"
DATASETAUXDATA Discretization  = "Finite difference"
DATASETAUXDATA Order           = "2"
DATASETAUXDATA DistanceCalc    = "Exact"
DATASETAUXDATA Notes           = " "

ZONE T = "005.02 - Alpha 1.50 - Grid Level 4"
AUXDATA Tstatic         = "271.0"
AUXDATA Deltat          = "-999"
AUXDATA GridFileName    = "ONERA-OAT15A_230mmChord_780mmSpan_upZ_2024_06_25-Structured_23mm_Level-4.x"
AUXDATA Misc            = " "
 0 4 430284 3.5600160647613427e+05 1.0267676061221277e+06 6.4512360057010068e-14 3.1579939150865423e+05 3.6339191118520143e+05 1.8099485971697655e+06 -999 6.62578213e-03 7.524890574e-01 -6.64959251e-04
 1 4 430284 5.2505914911593613e+05 7.8262354705261893e+05 5.5784726188576156e-14 2.5271924992617057e+05 5.0634621082042134e+05 1.1721517818687602e+06 -999 2.38223066e-02 7.015360433e-01 -1.12812005e-02
 2 4 430284 6.5080494050225534e+05 6.7553957472912199e+05 4.9227748651052961e-14 2.8209844746078103e+05 6.2109834381708282e+05 7.6194653401598870e+05 -999 4.29787261e-02 6.734455891e-01 -2.35994147e-02
 3 4 430284 7.6608409506185574e+05 6.1144849223027506e+05 4.4134233191756680e-14 3.4148462073800166e+05 7.3192382341672911e+05 4.9556276478419628e+05 -999 5.98061920e-02 6.571091385e-01 -3.38746595e-02
 4 4 430284 8.7054915756028122e+05 5.6344290912785556e+05 4.0116096952320420e-14 4.1258590816225659e+05 8.4059377874726371e+05 3.1657566209726920e+05 -999 7.66393768e-02 6.477395782e-01 -4.31445934e-02
 5 4 430284 9.7555978616459714e+05 5.6877858658605802e+05 3.6922809363385609e-14 4.8794918324521655e+05 9.6175242942329380e+05 2.0161993185055690e+05 -999 8.87371604e-02 6.410698323e-01 -4.99867958e-02
 6 4 430284 8.9309073977681866e+05 6.1321185549811204e+05 3.4468620692586054e-14 5.1792039983299607e+05 8.8311942696459196e+05 1.0093808595569518e+05 -999 9.68028768e-02 6.289761765e-01 -5.53128359e-02
 7 4 430284 9.1685535538075748e+05 6.3087937768829998e+05 3.2239718230955025e-14 5.4132749558100151e+05 9.0263687706304924e+05 7.9768688074638354e+04 -999 1.03807141e-01 6.138868743e-01 -6.01554399e-02
 8 4 430284 9.7913389755913243e+05 6.2585290947595565e+05 3.0595626408460157e-14 5.5388492695290956e+05 9.8565505984708248e+05 6.8282792465189646e+04 -999 1.09684549e-01 5.970811996e-01 -6.36673762e-02
 9 4 430284 1.1840024418507866e+06 6.8360426398729766e+05 2.9170502038331466e-14 6.1311516116465279e+05 1.2317694888409625e+06 6.1201764668625401e+04 -999 1.15980992e-01 5.764302218e-01 -6.68518527e-02
 10 4 430284 1.1096371921842103e+06 5.7791877892140602e+05 2.8373776207144847e-14 5.8269048148113990e+05 1.1492474664882501e+06 5.5143728120227774e+04 -999 1.19346616e-01 5.643173733e-01 -6.84771017e-02
 11 4 430284 1.0184215893109344e+06 5.6378660594724887e+05 2.7416964483203942e-14 5.6944726594903669e+05 1.0381847789461971e+06 4.9711955297580389e+04 -999 1.23107808e-01 5.495353250e-01 -7.04041651e-02
 12 4 430284 9.4737289755396766e+05 5.7028768091859110e+05 2.6652676902698090e-14 5.4711362694768026e+05 9.5930573019477481e+05 4.5391436350334436e+04 -999 1.25944526e-01 5.368584401e-01 -7.19079895e-02
 13 4 430284 1.0505465236535955e+06 5.8079770435063855e+05 2.6094036616124331e-14 5.6976750397617859e+05 1.0815425676455593e+06 4.2181674015314064e+04 -999 1.28590325e-01 5.231203307e-01 -7.34193823e-02
 14 4 430284 9.7984310019338201e+05 5.1128233282983670e+05 2.5668759662535555e-14 5.3377524185231875e+05 1.0050051433208613e+06 3.9339138941812438e+04 -999 1.29910699e-01 5.150669912e-01 -7.42537449e-02
 15 4 430284 1.1599008894471577e+06 6.6205121121400245e+05 2.5259335756613717e-14 5.8308001602690888e+05 1.2384224414750882e+06 3.7067812419647555e+04 -999 1.31378773e-01 5.054304281e-01 -7.52604581e-02
 16 4 430284 9.7687508077247418e+05 5.8358281189661124e+05 2.4813739830114433e-14 5.2340869689551659e+05 1.0372783034749647e+06 3.3958517852140947e+04 -999 1.32299716e-01 4.985297580e-01 -7.59208085e-02
 17 4 430284 8.6587215148260642e+05 4.8117380223777884e+05 2.4303155023644983e-14 4.9171927648452058e+05 8.8020290545139252e+05 3.1500086659582212e+04 -999 1.33425104e-01 4.895528843e-01 -7.67022563e-02
 18 4 430284 8.2265632242027530e+05 4.7185232837112056e+05 2.3877521492611128e-14 4.7027029195917561e+05 8.3191635978138400e+05 2.9431198956364799e+04 -999 1.34257511e-01 4.822843811e-01 -7.72311251e-02
 19 4 430284 9.6126069123588467e+05 5.1407879950508394e+05 2.3514006933524484e-14 4.8710366684841621e+05 1.0109944111143242e+06 2.7725253126106825e+04 -999 1.35063007e-01 4.746847789e-01 -7.76916140e-02
 20 4 430284 8.7862983945219102e+05 4.1588120789689245e+05 2.3312921690075055e-14 4.6016501131943829e+05 9.1147423507801851e+05 2.6167204677191337e+04 -999 1.35542694e-01 4.697263066e-01 -7.79357773e-02
 21 4 430284 8.0156052178922610e+05 4.2467030624986137e+05 2.2985977295078502e-14 4.4000940144369402e+05 8.2937012063040317e+05 2.4198976758649733e+04 -999 1.35999409e-01 4.640920500e-01 -7.81615439e-02
 22 4 430284 7.1956705706950207e+05 4.1092640878066211e+05 2.2622007036538561e-14 4.0997848506923357e+05 7.3662353656787856e+05 2.2590012769199635e+04 -999 1.36452065e-01 4.579168361e-01 -7.83848982e-02
 23 4 430284 7.4305392426934151e+05 4.1182882472107816e+05 2.2305741701105136e-14 4.0359173921219725e+05 7.6143033736854396e+05 2.1275511807739385e+04 -999 1.36886616e-01 4.511833497e-01 -7.86077066e-02
 24 4 430284 7.4513301473148807e+05 3.7142236827926448e+05 2.2144465319889709e-14 3.9508656137410115e+05 7.6233058304287586e+05 2.0125510949733536e+04 -999 1.37177848e-01 4.460279444e-01 -7.87687721e-02
 25 4 430284 8.0943138687581941e+05 4.1326989846658328e+05 2.2013883813989486e-14 3.9436127977289096e+05 8.5605343502158939e+05 1.9067780794740531e+04 -999 1.37412093e-01 4.415238955e-01 -7.89070242e-02
 26 4 430284 6.8144433372909960e+05 3.6581795921878371e+05 2.1774262462119787e-14 3.6320689252365555e+05 7.1798377785219823e+05 1.7702597299535497e+04 -999 1.37609139e-01 4.369016706e-01 -7.90310434e-02
 27 4 430284 6.0058548366156232e+05 3.4706517142103636e+05 2.1544199722498032e-14 3.3974831236522360e+05 6.1630947540117707e+05 1.6602885068180509e+04 -999 1.37812217e-01 4.319594172e-01 -7.91623272e-02
 28 4 430284 6.1257677207315329e+05 3.3720178012880892e+05 2.1356810224027252e-14 3.2972152438365464e+05 6.2465673345187923e+05 1.5685137247763852e+04 -999 1.38028838e-01 4.265611235e-01 -7.93042373e-02
 29 4 430284 6.2664695191416959e+05 3.1622817201989255e+05 2.1219427619105484e-14 3.2326885808614246e+05 6.4463157152444613e+05 1.4875282586073399e+04 -999 1.38189891e-01 4.224834999e-01 -7.94092182e-02
 30 4 430284 6.9036108887214446e+05 3.6450822550737730e+05 2.1098279110475319e-14 3.2579987013430410e+05 7.3421127957081003e+05 1.4140882103567321e+04 -999 1.38331835e-01 4.188481660e-01 -7.94999492e-02
 31 4 430284 5.7802761520633730e+05 3.1735580462800898e+05 2.0867670782643356e-14 2.9778002421258524e+05 6.1497487438370707e+05 1.3150682554628875e+04 -999 1.38449775e-01 4.152707149e-01 -7.95750781e-02
 32 4 430284 4.9163091346020979e+05 2.8813502915051882e+05 2.0609350142081848e-14 2.7340907115472527e+05 5.0873822076846397e+05 1.2330602363007763e+04 -999 1.38585514e-01 4.111591408e-01 -7.96606693e-02
 33 4 430284 4.7753059060748143e+05 2.7482097670687619e+05 2.0381606877118469e-14 2.5866343336875000e+05 4.8530978668753325e+05 1.1634301169031918e+04 -999 1.38724852e-01 4.069308399e-01 -7.97481624e-02
 34 4 430284 5.3681793487862777e+05 2.8465135604343645e+05 2.0220452911757115e-14 2.5953787835275551e+05 5.5812869697673910e+05 1.1034542896241926e+04 -999 1.38855720e-01 4.029289888e-01 -7.98303259e-02
 35 4 430284 5.3102077139606199e+05 2.6084571632134457e+05 2.0133014773532721e-14 2.5382184174876986e+05 5.5545069238666689e+05 1.0483469816751654e+04 -999 1.38945922e-01 4.001474212e-01 -7.98869523e-02
 36 4 430284 4.5974090092876571e+05 2.5282383307146915e+05 1.9924581708083849e-14 2.3420664721665459e+05 4.8552548672538478e+05 9.7722149311027024e+03 -999 1.39033188e-01 3.970210540e-01 -7.99428667e-02
 37 4 430284 3.8814523019260896e+05 2.3066867390051470e+05 1.9685882288348814e-14 2.1253465459884724e+05 4.0367599986589071e+05 9.1750372058116081e+03 -999 1.39131340e-01 3.935728462e-01 -8.00057340e-02
 38 4 430284 3.6958915924219758e+05 2.1429397354510607e+05 1.9454925743555445e-14 1.9822868745327136e+05 3.7405102898684808e+05 8.6513420682869291e+03 -999 1.39240772e-01 3.897934753e-01 -8.00757601e-02
 39 4 430284 4.0124185902363295e+05 2.1416624371839451e+05 1.9293842054019499e-14 1.9510379064657775e+05 4.1389690890668193e+05 8.1925387212207261e+03 -999 1.39337097e-01 3.865188405e-01 -8.01372188e-02
 40 4 430284 4.2880048091126815e+05 2.3260340722525149e+05 1.9186265426601988e-14 1.9440731561747732e+05 4.5466792839981103e+05 7.7825215471277443e+03 -999 1.39413681e-01 3.839472944e-01 -8.01858601e-02
 41 4 430284 3.6345328995095263e+05 2.0387435972276307e+05 1.8972295841974314e-14 1.7795744220860116e+05 3.8823402861831553e+05 7.2618018152840923e+03 -999 1.39482350e-01 3.813293356e-01 -8.02301780e-02
 42 4 430284 2.9915421935344586e+05 1.8472630039545550e+05 1.8713466403801991e-14 1.6091080090283690e+05 3.1393514172829030e+05 6.8161112353390117e+03 -999 1.39563628e-01 3.783042660e-01 -8.02826108e-02
 43 4 430284 2.7455805943036365e+05 1.6867258725439204e+05 1.8441322614604930e-14 1.4814337737043216e+05 2.7787955186573323e+05 6.4199160912359139e+03 -999 1.39652624e-01 3.750672394e-01 -8.03399746e-02
 44 4 430284 2.9665007199923450e+05 1.7046094936488144e+05 1.8227287359983441e-14 1.4393620445805069e+05 3.0445487312947167e+05 6.0674684402784751e+03 -999 1.39734923e-01 3.721337040e-01 -8.03928896e-02
 45 4 430284 3.2947322348777100e+05 1.8353114332305573e+05 1.8061871152636323e-14 1.4479810682151694e+05 3.4653215581439284e+05 5.7541005753036898e+03 -999 1.39808711e-01 3.695442931e-01 -8.04401064e-02
 46 4 430284 2.7786016393017961e+05 1.6435667607881164e+05 1.7853295197441368e-14 1.3217175622352888e+05 2.9807301387452340e+05 5.3432032491577493e+03 -999 1.39866758e-01 3.672480134e-01 -8.04781105e-02
 47 4 430284 2.2185159954709426e+05 1.4423615605910931e+05 1.7592164082164678e-14 1.1763882726902167e+05 2.3589063696635113e+05 4.9886852251339733e+03 -999 1.39938180e-01 3.645102399e-01 -8.05245233e-02
 48 4 430284 1.9477944395484397e+05 1.3016391215349472e+05 1.7317191804722888e-14 1.0595363532839908e+05 1.9832332177956484e+05 4.6826402879971911e+03 -999 1.40018703e-01 3.614922108e-01 -8.05768489e-02
 49 4 430284 2.0456634340062345e+05 1.2916128155291169e+05 1.7082841543493784e-14 1.0059166749992078e+05 2.0958726189674335e+05 4.3833336614216478e+03 -999 1.40094592e-01 3.587164224e-01 -8.06258864e-02
 50 4 430284 2.2281651815111306e+05 1.3830866047168415e+05 1.6906561470319962e-14 9.8835688848142134e+04 2.3551751830910583e+05 4.1289696221576032e+03 -999 1.40160590e-01 3.563582767e-01 -8.06680548e-02
 51 4 430284 1.8823846238550844e+05 1.2073512524768531e+05 1.6705602035513292e-14 9.0028575001997102e+04 2.0257190497750221e+05 3.7883132773401258e+03 -999 1.40216413e-01 3.541302862e-01 -8.07050195e-02
 52 4 430284 1.5086666784655317e+05 1.0665282252563073e+05 1.6461843908987192e-14 8.0428926895584795e+04 1.6236626345923400e+05 3.4926084819166481e+03 -999 1.40282541e-01 3.515362426e-01 -8.07490274e-02
 53 4 430284 1.2858853359285531e+05 9.6451515103297716e+04 1.6189152222307355e-14 7.1724903049956367e+04 1.3392288408266308e+05 3.2281585446104482e+03 -999 1.40359700e-01 3.485832900e-01 -8.08001242e-02
 54 4 430284 1.2833387768375703e+05 9.2950733094244642e+04 1.5947586925791122e-14 6.6607494643676866e+04 1.3234351952799616e+05 2.9961886515053252e+03 -999 1.40436113e-01 3.457536151e-01 -8.08499273e-02
 55 4 430284 1.3345170926844486e+05 9.3687228242486031e+04 1.5752471184806727e-14 6.3814973209216412e+04 1.4003983967848856e+05 2.7966083473451322e+03 -999 1.40505130e-01 3.432853921e-01 -8.08939603e-02
 56 4 430284 1.1460408448041781e+05 8.5850691381513927e+04 1.5561658317399984e-14 5.8869350530593474e+04 1.2256455586436203e+05 2.5210430773060871e+03 -999 1.40559511e-01 3.410668441e-01 -8.09316285e-02
 57 4 430284 9.2729072330718627e+04 7.8296612849913872e+04 1.5325236195946339e-14 5.3162702522577674e+04 1.0005825619075685e+05 2.2806676736981840e+03 -999 1.40625844e-01 3.383999555e-01 -8.09777681e-02
 58 4 430284 7.6687824872432117e+04 7.1648901055677081e+04 1.5036486179129236e-14 4.7490349632468336e+04 8.1213173216417708e+04 2.0728307633402160e+03 -999 1.40706028e-01 3.352696362e-01 -8.10327663e-02
 59 4 430284 7.1534119005995497e+04 6.7766959529168307e+04 1.4766205337661849e-14 4.3470711550550084e+04 7.4433706194455139e+04 1.8991913164141547e+03 -999 1.40788674e-01 3.321798960e-01 -8.10878270e-02
 60 4 430284 6.9624503229299007e+04 6.5420909665343846e+04 1.4540071177284040e-14 4.0707684391100207e+04 7.2455548087277741e+04 1.7516390718021769e+03 -999 1.40866836e-01 3.293829897e-01 -8.11384781e-02
 61 4 430284 6.0705722309118086e+04 6.1904176777943518e+04 1.4330129206104603e-14 3.7779926273342848e+04 6.3960793283342478e+04 1.5611476581750574e+03 -999 1.40921561e-01 3.269297028e-01 -8.11794095e-02
 62 4 430284 5.0221319039182141e+04 5.8101574235266962e+04 1.4055865470603884e-14 3.4339961937034379e+04 5.3095302061528339e+04 1.4008736713938315e+03 -999 1.40987956e-01 3.239367764e-01 -8.12291449e-02
 63 4 430284 4.1550549515843843e+04 5.4225981248273136e+04 1.3711329888738792e-14 3.0652287643217187e+04 4.3223569750600494e+04 1.2676694538211407e+03 -999 1.41068707e-01 3.203364989e-01 -8.12879823e-02
 64 4 430284 3.7081138908096429e+04 5.1135781840464049e+04 1.3388564142848764e-14 2.7631774584690669e+04 3.7959544516845002e+04 1.1590867640053448e+03 -999 1.41151231e-01 3.167382079e-01 -8.13452224e-02
 65 4 430284 3.4191355734475248e+04 4.8717490976328001e+04 1.3111907659639070e-14 2.5296995382809870e+04 3.4727889728108828e+04 1.0711485490179198e+03 -999 1.41228249e-01 3.134301146e-01 -8.13965580e-02
 66 4 430284 3.0340871938865173e+04 4.6409705497850795e+04 1.2856344229186281e-14 2.3369600642111105e+04 3.0878565124444849e+04 9.6480620699660471e+02 -999 1.41263778e-01 3.103971204e-01 -8.14261043e-02
 67 4 430284 2.5956302659379719e+04 4.3763310276498691e+04 1.2538649503374362e-14 2.1122397951692481e+04 2.6313388379070810e+04 8.8130084391503237e+02 -999 1.41302236e-01 3.065885159e-01 -8.14573524e-02
 68 4 430284 2.2145031943290513e+04 4.0910144584842114e+04 1.2152005060556556e-14 1.8717442395939266e+04 2.2273373449467679e+04 8.2546110658907469e+02 -999 1.41344655e-01 3.019205729e-01 -8.14860250e-02
 69 4 430284 1.9685662194390407e+04 3.8427173904598458e+04 1.1789648096611452e-14 1.6591930877716160e+04 1.9864861810080263e+04 8.1533405587614266e+02 -999 1.41390711e-01 2.971730515e-01 -8.14991935e-02
 70 4 430284 1.8092071367973451e+04 3.6396542584615556e+04 1.1467284725293587e-14 1.5031313249488710e+04 1.8490230622723746e+04 8.2032970098065380e+02 -999 1.41439081e-01 2.926551940e-01 -8.15007168e-02
 71 4 430284 1.6252249525156480e+04 3.4357251097556742e+04 1.1151329056445245e-14 1.3671597717489312e+04 1.6993185355704001e+04 8.4862415003203023e+02 -999 1.41487214e-01 2.876435943e-01 -8.14540990e-02
 72 4 430284 1.4616758397098818e+04 3.2058711208037348e+04 1.0748838219008363e-14 1.2416363307892256e+04 1.5763991663434103e+04 9.1811280324288532e+02 -999 1.41598871e-01 2.810086075e-01 -8.13896538e-02
 73 4 430284 1.3848767028351458e+04 2.9773328215547175e+04 1.0334546817211344e-14 1.1635791247919740e+04 1.5411637462868837e+04 1.1229409343781972e+03 -999 1.41840588e-01 2.727558506e-01 -8.13214902e-02
 74 4 430284 1.3973465981111176e+04 2.7978767755423974e+04 1.0017582687284603e-14 1.1458693866991978e+04 1.5852723578176985e+04 1.4929518050864021e+03 -999 1.42244831e-01 2.642817333e-01 -8.12926663e-02
 75 4 430284 1.4410596233315204e+04 2.6608606162206455e+04 9.7572079300599789e-15 1.1524684472318379e+04 1.6512509177167613e+04 2.0459564742912419e+03 -999 1.42824757e-01 2.558417245e-01 -8.13346932e-02
 76 4 430284 1.4152092576625084e+04 2.4569441873458840e+04 9.4408448880218568e-15 1.0675615871312564e+04 1.6434910211995084e+04 3.8183847043259807e+03 -999 1.44097904e-01 2.440027073e-01 -8.16206465e-02
 77 4 430284 1.4288104977349252e+04 2.2790280298777590e+04 9.2274925506685935e-15 1.0056253928768145e+04 1.6585688555210814e+04 1.1005132752018902e+04 -999 1.46422096e-01 2.272982568e-01 -8.23920832e-02
 78 4 430284 1.4562191804583732e+04 2.2322034030836989e+04 9.1285521616895918e-15 9.8264708558219972e+03 1.6668081439146863e+04 2.6184278262174790e+04 -999 1.49627720e-01 2.088644376e-01 -8.39209301e-02
 79 4 430284 1.4708253898968400e+04 2.2550676527576896e+04 8.9839714225204292e-15 9.7921921347411353e+03 1.6539898535362729e+04 5.6380710386794111e+04 -999 1.53091575e-01 1.906056127e-01 -8.62852044e-02
 80 4 430284 1.4955362623539777e+04 2.4927718180650176e+04 8.7211301911208764e-15 9.8407569717637016e+03 1.7248135773020855e+04 1.2753512733719124e+05 -999 1.56351215e-01 1.720982206e-01 -8.95552102e-02
 81 4 430284 1.2713190632530204e+04 1.8276738952143292e+04 8.0537778302056332e-15 8.8673914487535840e+03 1.3621915250332489e+04 1.8339656494642189e+05 -999 1.60204280e-01 1.460864716e-01 -9.57161141e-02
 82 4 430284 1.1088036237415614e+04 1.7724722892944981e+04 7.2422351974660565e-15 8.0196086407966814e+03 1.1851532874699560e+04 2.2639941609903335e+05 -999 1.61383118e-01 1.260728957e-01 -1.01562665e-01
 83 4 430284 1.0626606741214979e+04 2.5488311105928628e+04 6.6291961448518587e-15 7.6300447925278822e+03 1.2522895631652429e+04 1.3962903821115152e+05 -999 1.60969789e-01 1.222344965e-01 -1.02687488e-01
 84 4 430284 1.0445599939689879e+04 2.7557481961755722e+04 6.4026618990714147e-15 7.3643926563765435e+03 1.3034256446575764e+04 7.8108798837155613e+04 -999 1.60738707e-01 1.207869901e-01 -1.03088513e-01
 85 4 430284 1.0308034095042569e+04 2.8795485317876548e+04 6.2950996109040915e-15 7.2205214557412992e+03 1.3477376674583156e+04 4.0162498327029964e+04 -999 1.60544648e-01 1.196665487e-01 -1.03393510e-01
 86 4 430284 8.8243207937419484e+03 1.6627070543936385e+04 6.1515890940564241e-15 5.5864174376311576e+03 9.2083569153048011e+03 1.4702771820255692e+05 -999 1.58278986e-01 1.097221508e-01 -1.05853436e-01
 87 4 430284 7.8284625186814892e+03 1.3888811405087987e+04 5.8236191355092238e-15 4.6949243100010372e+03 7.8487031803896652e+03 8.8355178382172773e+04 -999 1.56639014e-01 1.028372426e-01 -1.07527911e-01
 88 4 430284 7.3875124490482249e+03 1.2653395816024395e+04 5.4435336788285972e-15 4.2532640243930873e+03 7.2991245060921501e+03 2.7249894279786771e+04 -999 1.56476608e-01 9.921920494e-02 -1.08580939e-01
 89 4 430284 7.0752167338411864e+03 1.1823264794952998e+04 5.2400710542575902e-15 4.0934022663531432e+03 6.9488559618201207e+03 1.6382210724153581e+04 -999 1.56866107e-01 9.709181547e-02 -1.09334459e-01
 90 4 430284 7.1642664849243665e+03 1.0978486826293765e+04 5.2957785899906178e-15 4.0132623482766608e+03 7.0064096640671387e+03 1.8780049658816064e+04 -999 1.57805556e-01 9.450984292e-02 -1.10401836e-01
 91 4 430284 5.4889371926642980e+03 8.2508490209428364e+03 1.1102033036163249e-13 3.4200975333432466e+03 5.3030188636741768e+03 5.4433061108082286e+04 -999 1.68342611e-01 8.666395574e-02 -1.16719069e-01
 92 4 430284 5.3934025494909374e+03 8.4860307545477772e+03 1.4481406770015679e-13 3.2962134193860834e+03 5.2759507510840085e+03 6.9514728459983089e+04 -999 1.89786922e-01 7.795711946e-02 -1.27613151e-01
 93 4 430284 5.9320203362966622e+03 9.2945917033451187e+03 8.0788877736557416e-14 3.0449768556980871e+03 6.1946792692584513e+03 9.1706369697275484e+04 -999 2.17803592e-01 7.120655686e-02 -1.41293201e-01
 94 4 430284 5.4843678000617447e+03 7.5380525355833051e+03 5.4032535295128493e-14 2.5809835829462199e+03 6.1879261223628346e+03 4.9618967172187746e+04 -999 2.35840197e-01 6.808323653e-02 -1.49682022e-01
 95 4 430284 4.6901647361560981e+03 6.3751420959110956e+03 6.2599235047202482e-14 2.3402389621762914e+03 5.3891146677110273e+03 3.2297593305198865e+04 -999 2.50846593e-01 6.547195246e-02 -1.56063354e-01
 96 4 430284 3.2681698142899263e+03 4.0426603543378806e+03 4.4660706803031841e-13 1.9568784723208889e+03 3.2764316954304672e+03 5.4811130240656472e+04 -999 2.80697361e-01 6.021834524e-02 -1.67935888e-01
 97 4 430284 2.8619133240052488e+03 3.5483498581956537e+03 4.9564593288129982e-13 1.5503135778987382e+03 2.7932461445632612e+03 9.6688818693742171e+04 -999 3.12172576e-01 5.510149405e-02 -1.77904680e-01
 98 4 430284 2.9142362435543619e+03 3.4865819128966018e+03 3.7537986149600583e-13 1.2669777579544609e+03 2.8284796676037549e+03 9.1186643730276250e+04 -999 3.47074432e-01 5.030254488e-02 -1.86018419e-01
 99 4 430284 3.1686126130338048e+03 3.4032811519478437e+03 2.7137941819841802e-13 1.1004577689069104e+03 3.1266370274289793e+03 5.4765436820292460e+04 -999 3.74131893e-01 4.736346382e-02 -1.90269331e-01
 100 4 430284 3.4217781294988581e+03 3.3253756803699994e+03 2.2455821070752310e-13 1.0264702549838314e+03 3.4266016564346587e+03 2.7388887960524429e+04 -999 3.92367908e-01 4.571336673e-02 -1.92266336e-01
 101 4 430284 3.0054392115286732e+03 2.8959159976398291e+03 2.3813101176973219e-13 1.1281372841323359e+03 2.9696895975546340e+03 2.5979453723280090e+04 -999 4.14382717e-01 4.403189581e-02 -1.94272242e-01
 102 4 430284 3.0176030520553804e+03 2.6836420853798786e+03 3.0323007959271366e-13 1.0886314616008588e+03 3.0210170812431247e+03 2.1373207378535917e+04 -999 4.38560713e-01 4.250675570e-02 -1.95831860e-01
 103 4 430284 3.1934537965542495e+03 2.5595536960643976e+03 3.1432959964603612e-13 9.5735254390422949e+02 3.2473676897883188e+03 1.4133205207389708e+04 -999 4.58096612e-01 4.154344653e-02 -1.96576397e-01
 104 4 430284 3.4444807246205901e+03 2.5119871372072735e+03 3.0463113767779298e-13 8.6467737884072631e+02 3.5572342775018201e+03 1.1374969057644133e+04 -999 4.72439089e-01 4.097849271e-02 -1.96797987e-01
 105 4 430284 3.7648105120032837e+03 2.5384533872103193e+03 2.9255640471439540e-13 8.1794140082484876e+02 3.9502704201536844e+03 9.9359944463219399e+03 -999 4.83253900e-01 4.063687140e-02 -1.96771973e-01
 106 4 430284 3.1870657721014591e+03 2.2895877118166604e+03 2.3456626993107154e-13 6.9895863849469981e+02 3.2686351943244954e+03 9.5512817601738898e+03 -999 4.97443846e-01 4.042520838e-02 -1.96412792e-01
 107 4 430284 2.8897655187757528e+03 2.1301240118768696e+03 2.4853478668999428e-13 6.3772250472233497e+02 2.9114046304770982e+03 9.2212703124988093e+03 -999 5.14859452e-01 4.025494930e-02 -1.95673382e-01
 108 4 430284 2.8083585527978980e+03 2.0390148474786856e+03 2.8235504000418564e-13 5.9353083118665143e+02 2.8302041279183923e+03 8.7048091946578061e+03 -999 5.31574025e-01 4.017459540e-02 -1.94570372e-01
 109 4 430284 2.7714124894462748e+03 1.9796643576772151e+03 2.9862407810139983e-13 5.6319909937848377e+02 2.8020332185055245e+03 8.0979321861249073e+03 -999 5.43776020e-01 4.017356439e-02 -1.93455051e-01
 110 4 430284 2.7588342091756094e+03 1.9441327157834100e+03 3.0898407190582287e-13 5.4307379431459196e+02 2.7937260889380386e+03 7.7450838601471341e+03 -999 5.53921506e-01 4.022603709e-02 -1.92344990e-01
 111 4 430284 2.5441022614484668e+03 1.8421558198263770e+03 2.8533717500891785e-13 5.1999253240943608e+02 2.5461660949994225e+03 7.2092765528797690e+03 -999 5.62066279e-01 4.033872445e-02 -1.91260937e-01
 112 4 430284 2.3666208959181445e+03 1.7545793183365131e+03 3.2768411239731098e-13 5.0583123878206248e+02 2.3417073591851677e+03 7.4705098529192737e+03 -999 5.71930428e-01 4.049480672e-02 -1.89855208e-01
 113 4 430284 2.2284667650159745e+03 1.6752411667133119e+03 4.0133045222112926e-13 4.9379034360210022e+02 2.1864618329336049e+03 7.6488638094663793e+03 -999 5.84189658e-01 4.071282896e-02 -1.87975767e-01
 114 4 430284 2.1465390663147882e+03 1.6252370746417682e+03 4.3365159542508930e-13 4.8056214789524091e+02 2.0978508872318712e+03 6.7123617385599500e+03 -999 5.91517191e-01 4.085487555e-02 -1.86750313e-01
 115 4 430284 2.0698851897854411e+03 1.5839080903672734e+03 4.4788385598191751e-13 4.6508048768585093e+02 2.0180179051413725e+03 6.6624921109108791e+03 -999 5.98724534e-01 4.099594939e-02 -1.85492239e-01
 116 4 430284 1.9838195065055079e+03 1.5472126942547534e+03 3.8578537813061893e-13 4.4512133927040344e+02 1.9270842099876008e+03 6.4647223406832381e+03 -999 6.04944767e-01 4.114089175e-02 -1.84400082e-01
 117 4 430284 1.9067488362780948e+03 1.5063515681397869e+03 3.5600858426616997e-13 4.2085610251654765e+02 1.8436580535761609e+03 6.7147616833912398e+03 -999 6.12476548e-01 4.129698365e-02 -1.83053472e-01
 118 4 430284 1.8361534212540280e+03 1.4571466021355234e+03 3.8082505093123757e-13 3.9338517261389910e+02 1.7700623583729373e+03 6.8547862317287281e+03 -999 6.20950587e-01 4.143875106e-02 -1.81497736e-01
 119 4 430284 1.7778243059961349e+03 1.4226771602713136e+03 4.2081564938418517e-13 3.7115224480714664e+02 1.7077116801048578e+03 6.6298653122879296e+03 -999 6.28667551e-01 4.152415314e-02 -1.80044827e-01
 120 4 430284 1.7474767133347293e+03 1.3926800935171639e+03 4.4846351501163780e-13 3.5695160997420413e+02 1.6733032323160166e+03 6.2445182816130446e+03 -999 6.33816295e-01 4.154471289e-02 -1.79054636e-01
 121 4 430284 1.6697626685678420e+03 1.3506531581390054e+03 3.7629976297108086e-13 3.4149092182347653e+02 1.5959399808688661e+03 6.4892129315640732e+03 -999 6.39789821e-01 4.150771308e-02 -1.77829734e-01
 122 4 430284 1.6126077606907670e+03 1.2998454730641990e+03 3.8369872489031233e-13 3.3162551197501233e+02 1.5346008342540727e+03 6.8230426981523087e+03 -999 6.46855327e-01 4.139989085e-02 -1.76424648e-01
 123 4 430284 1.5806253065625604e+03 1.2506796105582791e+03 4.3774525963633123e-13 3.2538654198330931e+02 1.5004272627658561e+03 7.0230132917066803e+03 -999 6.53819041e-01 4.120869928e-02 -1.75080193e-01
 124 4 430284 1.5521985812664814e+03 1.2263835364461374e+03 4.7682100188027933e-13 3.2301224243841438e+02 1.4724465292726290e+03 7.0456960091234523e+03 -999 6.59842720e-01 4.095796648e-02 -1.73943622e-01
 125 4 430284 1.5449695977812919e+03 1.2140817358411064e+03 4.9729670710132569e-13 3.2031443245137541e+02 1.4583107497513183e+03 6.8448094284146018e+03 -999 6.63976799e-01 4.072908470e-02 -1.73186767e-01
 126 4 430284 1.4873702165114514e+03 1.1736100828919855e+03 4.2938137279671666e-13 3.1921282325606143e+02 1.3999716469499620e+03 6.8410479223360953e+03 -999 6.67945883e-01 4.046529396e-02 -1.72482517e-01
 127 4 430284 1.4389421970237424e+03 1.1316384302458457e+03 4.5517435363782568e-13 3.1805259814230334e+02 1.3507701145884819e+03 7.0217778096095053e+03 -999 6.73077791e-01 4.007936707e-02 -1.71634942e-01
 128 4 430284 1.4152469702023209e+03 1.0923352340942881e+03 5.5264416021104810e-13 3.1711184462775248e+02 1.3230630904095187e+03 7.1618651192658581e+03 -999 6.79116447e-01 3.954508277e-02 -1.70712486e-01
 129 4 430284 1.4072722084830132e+03 1.0758051982709342e+03 6.0815165028404347e-13 3.1595360978593982e+02 1.3170492772352184e+03 7.1603728703068082e+03 -999 6.83124828e-01 3.911833508e-02 -1.70140032e-01
 130 4 430284 1.4019814219734694e+03 1.0886461349666090e+03 6.4777047286063128e-13 3.1778442460352073e+02 1.3127189621324219e+03 7.3719872719983005e+03 -999 6.87429676e-01 3.860822041e-02 -1.69551998e-01
 131 4 430284 1.3596007160519798e+03 1.0712228627615773e+03 5.3999334602482122e-13 3.1789164584305144e+02 1.2665994839716871e+03 7.4011412630906179e+03 -999 6.90303355e-01 3.823050043e-02 -1.69179764e-01
 132 4 430284 1.3340955271163991e+03 1.0506856890883607e+03 4.5764679203741942e-13 3.1933233523291489e+02 1.2383365640590969e+03 7.7074362999714922e+03 -999 6.93914234e-01 3.773876535e-02 -1.68752862e-01
 133 4 430284 1.3207374474926000e+03 1.0354785403778069e+03 4.2092882798457987e-13 3.2214052678346729e+02 1.2277214452960391e+03 7.9134035246496178e+03 -999 6.98381989e-01 3.710232018e-02 -1.68276206e-01
 134 4 430284 1.3269436612117318e+03 1.0248481045415790e+03 4.2023334258135856e-13 3.2324381458220421e+02 1.2316265197847654e+03 8.0447292198926771e+03 -999 7.02785567e-01 3.643979779e-02 -1.67849241e-01
 135 4 430284 1.3332639313075465e+03 1.0239259984577174e+03 4.2436577581107586e-13 3.2407260645072370e+02 1.2412415477361178e+03 8.1381724257437199e+03 -999 7.05849228e-01 3.595714046e-02 -1.67572665e-01
 136 4 430284 1.2727860500181532e+03 1.0138626421649957e+03 3.3872152728314998e-13 3.2493555672576559e+02 1.1793672986051940e+03 8.2917986517073186e+03 -999 7.09007297e-01 3.544894967e-02 -1.67300700e-01
 137 4 430284 1.2494935141362885e+03 1.0027788739411384e+03 2.8229015881216468e-13 3.2716458660471579e+02 1.1518775698877346e+03 8.4548874115322469e+03 -999 7.12970101e-01 3.481273574e-02 -1.66994170e-01
 138 4 430284 1.2555289937591224e+03 9.9088713611948685e+02 2.6590197989576785e-13 3.2934127672872864e+02 1.1608390307354657e+03 8.5389926364328239e+03 -999 7.17544589e-01 3.407418990e-02 -1.66669647e-01
 139 4 430284 1.2623540803442079e+03 1.0040984583585977e+03 2.6719822394345307e-13 3.3176160786649098e+02 1.1697768984949073e+03 8.5374461954002745e+03 -999 7.21661004e-01 3.340115756e-02 -1.66386412e-01
 140 4 430284 1.2796929101681246e+03 9.9646447148594905e+02 2.6857818291249698e-13 3.3134174093474030e+02 1.1840229260983815e+03 8.5347999778133417e+03 -999 7.24583920e-01 3.292479031e-02 -1.66194188e-01
 141 4 430284 1.2093143118684245e+03 9.7312907459934661e+02 2.3173469800692997e-13 3.3122121831655164e+02 1.1140924562876608e+03 8.5648666453355236e+03 -999 7.27952581e-01 3.238403948e-02 -1.65977091e-01