TITLE = "005.02 ALPHA 3.90 GRIDLEVEL 6"

VARIABLES = "ITERATION"  "GRID_LEVEL"  "GRID_SIZE"  "CONTINUITY"  "MOMENTUMX"  "MOMENTUMY"  "MOMENTUMZ"  "ENERGY"  "TURB1"  "TURB2"  "CL_TOT"  "CD_TOT"  "CM_TOT"

DATASETAUXDATA ParticipantID   = "005"
DATASETAUXDATA SubmissionDate  = "10-31-2024"
DATASETAUXDATA Name            = "Jeffrey A. Housman"
DATASETAUXDATA Email           = "jeffrey.a.housman@nasa.gov"
DATASETAUXDATA Institution     = "NASA Ames Research Center"
DATASETAUXDATA SolverName      = "LAVA Curvilinear"
DATASETAUXDATA BasicAlgorithm  = "RANS"
DATASETAUXDATA TurbulenceModel = "SA-RC-comp-neg"
DATASETAUXDATA GridId          = "Multiblock"
DATASETAUXDATA Discretization  = "Finite difference"
DATASETAUXDATA Order           = "2"
DATASETAUXDATA DistanceCalc    = "Exact"
DATASETAUXDATA Notes           = " "

ZONE T = "005.02 - Alpha 3.90 - Grid Level 6"
AUXDATA Tstatic         = "271.0"
AUXDATA Deltat          = "-999"
AUXDATA GridFileName    = "ONERA-OAT15A_230mmChord_780mmSpan_upZ_2024_06_25-Structured_23mm_Level-6.x"
AUXDATA Misc            = " "
 0 6 1281933 6.3968893799545791e+05 2.2587713157161442e+06 1.0839235595228051e-13 6.7529373502428702e+05 6.9966831427821238e+05 4.1631360678684795e+06 -999 2.26937789e-02 1.053253837e+00 -1.53018535e-02
 1 6 1281933 9.6792978239268751e+05 1.6510090141265483e+06 9.0846140826343233e-14 4.9121632251958182e+05 9.4906916500788846e+05 2.6978596438076589e+06 -999 6.17789843e-02 9.467671567e-01 -3.00675397e-02
 2 6 1281933 1.1763729683937519e+06 1.3869003668198101e+06 7.8119851671790672e-14 5.3344527540523536e+05 1.1332299640012039e+06 1.7557383064152689e+06 -999 1.11541065e-01 8.829394395e-01 -4.85369901e-02
 3 6 1281933 1.3600099670122329e+06 1.2258113687131349e+06 6.8546649575680017e-14 6.2885280162752804e+05 1.3078164617491050e+06 1.1490863945888702e+06 -999 1.57787827e-01 8.396219097e-01 -6.61713827e-02
 4 6 1281933 1.5110504926248337e+06 1.1166760120836408e+06 6.1174792455190263e-14 7.4515518336361006e+05 1.4680634333371725e+06 7.4658549787729350e+05 -999 1.98646088e-01 8.089170864e-01 -8.02337304e-02
 5 6 1281933 1.6721012890562455e+06 1.1122042720562341e+06 5.5414119849539825e-14 8.6690886444068037e+05 1.6686292749914066e+06 4.8135325617189426e+05 -999 2.30534339e-01 7.846142020e-01 -9.11582449e-02
 6 6 1281933 1.5138745603874994e+06 1.1121415492977495e+06 5.0980230216363263e-14 8.9708246101328253e+05 1.5138951795454819e+06 2.8771504828512191e+05 -999 2.53177952e-01 7.556529177e-01 -9.96420550e-02
 7 6 1281933 1.5391467190575234e+06 1.1041680207389449e+06 4.6847323524293265e-14 9.2915998675321275e+05 1.5391757030656149e+06 1.6190151343280799e+05 -999 2.72058007e-01 7.244682228e-01 -1.07168219e-01
 8 6 1281933 1.6215734582674091e+06 1.0561336153093954e+06 4.3799423391632126e-14 9.5624866213820188e+05 1.6386052037747512e+06 1.2616191096612273e+05 -999 2.85773696e-01 6.959305367e-01 -1.12475573e-01
 9 6 1281933 1.8494633759258045e+06 1.1009715787331765e+06 4.1516399935694963e-14 1.0110904506500744e+06 1.9349717215923402e+06 1.0801039302000191e+05 -999 2.96296355e-01 6.702165451e-01 -1.16304890e-01
 10 6 1281933 1.8736233820325646e+06 1.0333421421117533e+06 3.9861076382132713e-14 1.0292275685652755e+06 1.9470640254964412e+06 9.6208949214610766e+04 -999 3.03844033e-01 6.498530741e-01 -1.19010838e-01
 11 6 1281933 1.7417481819521338e+06 1.0473767939751297e+06 3.8351567388305608e-14 9.9823372381667909e+05 1.8120587647958798e+06 8.7510947280876426e+04 -999 3.10079680e-01 6.319372589e-01 -1.21287353e-01
 12 6 1281933 1.6107669318290767e+06 9.4138573003255122e+05 3.6667536941547482e-14 9.6952962270964147e+05 1.6338568065821636e+06 8.0945113043352467e+04 -999 3.16740660e-01 6.117180188e-01 -1.23571508e-01
 13 6 1281933 1.6472013654989148e+06 9.8817547824327741e+05 3.5354449256029334e-14 9.7680300234418747e+05 1.6846150151904686e+06 7.5573029090061580e+04 -999 3.21788448e-01 5.951383765e-01 -1.25253155e-01
 14 6 1281933 1.9032220929044446e+06 1.0841442716404088e+06 3.4219629869995630e-14 1.0395334863718911e+06 2.0102580480518271e+06 7.1206578448640706e+04 -999 3.26156355e-01 5.795763171e-01 -1.26780411e-01
 15 6 1281933 1.7646374281889077e+06 8.8218530502849875e+05 3.3523974734631530e-14 9.7577764606797532e+05 1.8340442971149050e+06 6.6987224712125928e+04 -999 3.28408012e-01 5.706627542e-01 -1.27632341e-01
 16 6 1281933 1.6343228258609483e+06 8.9421832512445818e+05 3.2614112381438927e-14 9.5352995978850487e+05 1.6817648536768600e+06 6.2880518853848000e+04 -999 3.30796178e-01 5.602713957e-01 -1.28533997e-01
 17 6 1281933 1.5171707559925469e+06 8.7796908085008664e+05 3.1704384969738412e-14 9.1790522379745007e+05 1.5394868768871347e+06 5.9637318199480767e+04 -999 3.32890583e-01 5.503018182e-01 -1.29254434e-01
 18 6 1281933 1.6642025509025659e+06 9.3331469865913305e+05 3.0831749305620013e-14 9.4726497500493901e+05 1.7215921731050154e+06 5.7065143106717805e+04 -999 3.34913109e-01 5.396866867e-01 -1.29856736e-01
 19 6 1281933 1.6293211630907452e+06 8.1769743196684227e+05 3.0253032620270943e-14 9.3023213410447107e+05 1.6698873650828912e+06 5.4619911607570539e+04 -999 3.36169414e-01 5.324157772e-01 -1.30163324e-01
 20 6 1281933 1.8016334018111115e+06 9.4562406486677902e+05 2.9755591539274184e-14 9.4379611162146449e+05 1.9081970512596997e+06 5.2374076320170345e+04 -999 3.37330488e-01 5.252832822e-01 -1.30422739e-01
 21 6 1281933 1.5272270450965595e+06 8.1947916783214128e+05 2.9153691625758687e-14 8.8272185797561146e+05 1.5908512897749983e+06 4.8988116164810759e+04 -999 3.38323010e-01 5.180238024e-01 -1.30626652e-01
 22 6 1281933 1.4224721317743652e+06 8.0992461586529750e+05 2.8595592677736579e-14 8.5237976067098335e+05 1.4460343604512366e+06 4.6455258562001713e+04 -999 3.39253588e-01 5.106075043e-01 -1.30816720e-01
 23 6 1281933 1.4794159934545595e+06 7.7808191793838376e+05 2.8136161843283653e-14 8.5538844815616403e+05 1.5092389736139346e+06 4.4477042862443821e+04 -999 3.40106805e-01 5.031631667e-01 -1.30998643e-01
 24 6 1281933 1.5267694084223753e+06 7.6849961799339694e+05 2.7802976050731405e-14 8.4259846079749928e+05 1.5859622573298630e+06 4.2636311025176081e+04 -999 3.40694876e-01 4.975206803e-01 -1.31130628e-01
 25 6 1281933 1.7398362408386108e+06 9.7001362758767768e+05 2.7534664797342479e-14 8.9481814202479098e+05 1.8653824338576815e+06 4.1172095383309512e+04 -999 3.41285902e-01 4.915085035e-01 -1.31267735e-01
 26 6 1281933 1.4708556224747859e+06 8.4008368855212629e+05 2.7093444228842796e-14 8.1715283577107266e+05 1.5643413616128326e+06 3.8424420210858167e+04 -999 3.41698117e-01 4.865554125e-01 -1.31357772e-01
 27 6 1281933 1.3032713326107033e+06 7.2517010682231165e+05 2.6660488780570353e-14 7.7080649824209150e+05 1.3372332011321825e+06 3.6441313720474172e+04 -999 3.42162911e-01 4.808839605e-01 -1.31459509e-01
 28 6 1281933 1.3105470412143001e+06 7.0782844897063414e+05 2.6317987853267382e-14 7.5779907068666886e+05 1.3353506728406644e+06 3.4885862955894794e+04 -999 3.42612901e-01 4.753014236e-01 -1.31555570e-01
 29 6 1281933 1.4082862997030634e+06 7.2826821234836162e+05 2.6109899287998044e-14 7.5660782297502924e+05 1.4767615258893019e+06 3.3496770459783067e+04 -999 3.42979176e-01 4.707202598e-01 -1.31631545e-01
 30 6 1281933 1.5791936108773621e+06 8.7418116959540942e+05 2.5941298888837540e-14 7.9313564934463578e+05 1.6946461607620781e+06 3.2335739142455674e+04 -999 3.43335175e-01 4.662517230e-01 -1.31704831e-01
 31 6 1281933 1.3281102811590999e+06 7.5956628739941842e+05 2.5562932863077737e-14 7.2414716150438145e+05 1.4198255687054084e+06 3.0203402263561835e+04 -999 3.43616776e-01 4.622053440e-01 -1.31757639e-01
 32 6 1281933 1.1559461987765795e+06 6.4855776555004413e+05 2.5160969512572240e-14 6.7632495705309929e+05 1.1938563093346774e+06 2.8709521813296611e+04 -999 3.43926593e-01 4.577284029e-01 -1.31817459e-01
 33 6 1281933 1.1743576332069419e+06 6.3917290416019293e+05 2.4805870257865487e-14 6.6271526635526528e+05 1.2024955753199661e+06 2.7525258417012777e+04 -999 3.44261835e-01 4.528507840e-01 -1.31884726e-01
 34 6 1281933 1.2469957760891079e+06 6.2702780330919614e+05 2.4610958076082851e-14 6.6292800111627846e+05 1.3006957861615124e+06 2.6444045365439044e+04 -999 3.44521725e-01 4.490396485e-01 -1.31939198e-01
 35 6 1281933 1.3737024516724865e+06 7.3849537495556637e+05 2.4515290836212500e-14 6.7432338883095980e+05 1.4788498364883952e+06 2.5443003103602096e+04 -999 3.44747442e-01 4.457063229e-01 -1.31988031e-01
 36 6 1281933 1.1655475638269016e+06 6.3091994979950471e+05 2.4258753472477630e-14 6.2438383974181500e+05 1.2473479608345896e+06 2.3781973852711009e+04 -999 3.44944780e-01 4.424115415e-01 -1.32027981e-01
 37 6 1281933 1.0024914475324849e+06 5.7104971157036419e+05 2.3978955850466958e-14 5.8000293926515686e+05 1.0375738221922301e+06 2.2605501667678469e+04 -999 3.45185210e-01 4.384469084e-01 -1.32078278e-01
 38 6 1281933 9.9326809927054739e+05 5.5106871634371509e+05 2.3797192978258612e-14 5.5972234076408925e+05 1.0134536598109199e+06 2.1661345448852913e+04 -999 3.45426520e-01 4.345254791e-01 -1.32130405e-01
 39 6 1281933 1.1013990145606410e+06 5.8378961052609654e+05 2.3748932059311567e-14 5.6304957998096885e+05 1.1556765276397120e+06 2.0817865919000447e+04 -999 3.45638714e-01 4.311285207e-01 -1.32177344e-01
 40 6 1281933 1.2276765846916575e+06 6.6305773539783724e+05 2.3803756233304009e-14 5.8289595343503740e+05 1.3169103377089731e+06 2.0051234963569554e+04 -999 3.45831171e-01 4.280846311e-01 -1.32220575e-01
 41 6 1281933 1.0368100221004137e+06 5.8072581204309454e+05 2.3547628911941261e-14 5.3439941437492089e+05 1.1167977409932604e+06 1.8738852387067538e+04 -999 3.45989020e-01 4.253376283e-01 -1.32253162e-01
 42 6 1281933 8.6748869070065487e+05 4.9172603819277039e+05 2.3233040969523877e-14 4.9074726005192270e+05 9.0466288728804386e+05 1.7811799259521413e+04 -999 3.46184590e-01 4.220160857e-01 -1.32294342e-01
 43 6 1281933 8.4048545974166447e+05 4.6869545746049180e+05 2.2961793305690028e-14 4.6864398846169218e+05 8.5382022862376086e+05 1.7066579041743920e+04 -999 3.46392327e-01 4.185817416e-01 -1.32338975e-01
 44 6 1281933 9.2322367906027567e+05 4.8971806578014384e+05 2.2838673893968672e-14 4.6792694736332266e+05 9.6190081360691332e+05 1.6403355736883590e+04 -999 3.46575074e-01 4.156331969e-01 -1.32378921e-01
 45 6 1281933 1.0382805045096350e+06 5.7144500948757911e+05 2.2805535591663433e-14 4.7988810586127581e+05 1.1154226148636146e+06 1.5786764998305285e+04 -999 3.46736438e-01 4.130749382e-01 -1.32414664e-01
 46 6 1281933 8.7662056477925531e+05 4.8119974867896951e+05 2.2579412751110303e-14 4.4117368621957768e+05 9.4551077803501056e+05 1.4743526081332398e+04 -999 3.46877477e-01 4.106499776e-01 -1.32443501e-01
 47 6 1281933 7.2962944599186443e+05 4.1490123098409362e+05 2.2314713909308646e-14 4.0495506878441508e+05 7.6575104068203887e+05 1.3973873575608104e+04 -999 3.47045844e-01 4.078270881e-01 -1.32478691e-01
 48 6 1281933 6.8572920767012599e+05 3.8373377478059963e+05 2.2081194591818659e-14 3.8157216469034884e+05 6.9389603296329407e+05 1.3337570136500974e+04 -999 3.47231740e-01 4.047905615e-01 -1.32518411e-01
 49 6 1281933 7.4671832759561273e+05 3.9430187572615419e+05 2.1960906019735624e-14 3.7708545326590893e+05 7.6882025110793370e+05 1.2776791613918494e+04 -999 3.47404688e-01 4.020332807e-01 -1.32556127e-01
 50 6 1281933 8.3161746386828856e+05 4.3456742857546598e+05 2.1956661978674004e-14 3.8291199546836870e+05 8.8025343517399940e+05 1.2261405352998876e+04 -999 3.47557254e-01 3.996450958e-01 -1.32589978e-01
 51 6 1281933 7.1135686062939663e+05 3.8016701220945443e+05 2.1767232970973817e-14 3.5315620279934141e+05 7.6194428103384795e+05 1.1433771344951032e+04 -999 3.47690008e-01 3.974179926e-01 -1.32617450e-01
 52 6 1281933 5.8986408997157845e+05 3.3361057821571821e+05 2.1539602519178680e-14 3.2289396373350959e+05 6.2072398245022376e+05 1.0788953168560680e+04 -999 3.47849289e-01 3.948109410e-01 -1.32651114e-01
 53 6 1281933 5.4502980416762771e+05 3.0611916369793046e+05 2.1335357176277337e-14 3.0106154216414620e+05 5.5221864967070357e+05 1.0237830004089581e+04 -999 3.48028545e-01 3.919525269e-01 -1.32689831e-01
 54 6 1281933 5.8442898221863154e+05 3.1090783572725992e+05 2.1246809216217486e-14 2.9403875555445830e+05 5.9778147847914242e+05 9.7477752107626202e+03 -999 3.48197824e-01 3.893202718e-01 -1.32727206e-01
 55 6 1281933 6.4104779852789920e+05 3.3564638790494145e+05 2.1266161375552942e-14 2.9479224135720043e+05 6.7385740455838921e+05 9.3065860889301603e+03 -999 3.48347279e-01 3.870408105e-01 -1.32760932e-01
 56 6 1281933 5.5243809918774373e+05 2.9486420522631623e+05 2.1076291246683989e-14 2.7280951594163245e+05 5.8850213713194220e+05 8.6758091358831189e+03 -999 3.48477511e-01 3.849408606e-01 -1.32788890e-01
 57 6 1281933 4.5839332756739855e+05 2.6002147921553956e+05 2.0830647455151183e-14 2.4941775518317791e+05 4.8324271947756328e+05 8.1501850925689159e+03 -999 3.48635682e-01 3.824528960e-01 -1.32823682e-01
 58 6 1281933 4.1638665287562879e+05 2.3675361958915624e+05 2.0612565417248222e-14 2.2909792765419398e+05 4.2403147822306276e+05 7.6831825008863352e+03 -999 3.48819350e-01 3.796716267e-01 -1.32864975e-01
 59 6 1281933 4.3773396812518925e+05 2.3523628303458230e+05 2.0513493800892518e-14 2.1977319104994638e+05 4.4654945711594593e+05 7.2747554895252788e+03 -999 3.48999021e-01 3.770118344e-01 -1.32906670e-01
 60 6 1281933 4.7197224373299559e+05 2.5112680423976298e+05 2.0532086176103881e-14 2.1677972008595543e+05 4.9326006288992887e+05 6.8875045464363793e+03 -999 3.49155718e-01 3.747305180e-01 -1.32944378e-01
 61 6 1281933 4.0765461609592574e+05 2.2103538195798977e+05 2.0341654359778611e-14 2.0014679309668529e+05 4.3219169428956805e+05 6.3960604913475863e+03 -999 3.49290480e-01 3.726829809e-01 -1.32976236e-01
 62 6 1281933 3.3785327130148391e+05 1.9507475341701708e+05 2.0093107184463989e-14 1.8183262099099910e+05 3.5693112197524030e+05 5.9724342569850232e+03 -999 3.49453631e-01 3.702484533e-01 -1.33015660e-01
 63 6 1281933 3.0164605814125197e+05 1.7704065898197511e+05 1.9856156039088091e-14 1.6584688701009256e+05 3.0955649491065263e+05 5.5873166204219906e+03 -999 3.49643057e-01 3.674730662e-01 -1.33062659e-01
 64 6 1281933 3.0809607280418900e+05 1.7255774210195843e+05 1.9724776937488985e-14 1.5692749751214724e+05 3.1455752684613736e+05 5.2502370549011575e+03 -999 3.49826465e-01 3.648279589e-01 -1.33109754e-01
 65 6 1281933 3.2311732346874225e+05 1.7597861545727390e+05 1.9704354257781965e-14 1.5216130584035011e+05 3.3499910417331412e+05 4.9579134378972913e+03 -999 3.49989945e-01 3.624900484e-01 -1.33153543e-01
 66 6 1281933 2.8056169493014383e+05 1.5912222956947348e+05 1.9529416758273667e-14 1.4085330906191439e+05 2.9547964478124399e+05 4.5546925534436050e+03 -999 3.50125698e-01 3.604558698e-01 -1.33188960e-01
 67 6 1281933 2.3247797392673680e+05 1.4302733098133502e+05 1.9299446921262378e-14 1.2792682875398737e+05 2.4537870924402273e+05 4.2196665605025901e+03 -999 3.50289963e-01 3.580229544e-01 -1.33232309e-01
 68 6 1281933 2.0310559609784462e+05 1.3024453670712655e+05 1.9058840542540262e-14 1.1567559312125060e+05 2.0972696710530826e+05 3.9070179872429098e+03 -999 3.50482149e-01 3.552060637e-01 -1.33283979e-01
 69 6 1281933 2.0023476580382671e+05 1.2450932663634229e+05 1.8909675680268730e-14 1.0758509458737717e+05 2.0499344811900784e+05 3.6522518752865267e+03 -999 3.50669410e-01 3.524788879e-01 -1.33336044e-01
 70 6 1281933 2.0260309982028240e+05 1.2221556522730543e+05 1.8895908009326808e-14 1.0220741666440954e+05 2.0892215015909445e+05 3.4178324685514553e+03 -999 3.50835783e-01 3.500531472e-01 -1.33384757e-01
 71 6 1281933 1.7675783502894035e+05 1.1285644099079029e+05 1.8723176512379336e-14 9.4925197071210787e+04 1.8497043731076861e+05 3.1245002655856192e+03 -999 3.50970062e-01 3.479882822e-01 -1.33421601e-01
 72 6 1281933 1.4649704880773905e+05 1.0337126683961795e+05 1.8491748638210910e-14 8.6344525846482575e+04 1.5400442655849844e+05 2.8695950682458333e+03 -999 3.51133521e-01 3.454936465e-01 -1.33466770e-01
 73 6 1281933 1.2496842870805545e+05 9.4976242846031819e+04 1.8240208138549884e-14 7.7539996104089514e+04 1.2929767847185422e+05 2.6454259400571354e+03 -999 3.51327220e-01 3.425524096e-01 -1.33521362e-01
 74 6 1281933 1.1806132969493634e+05 8.9710513169293015e+04 1.8071714422525232e-14 7.0873730458606398e+04 1.2103211377265690e+05 2.4557106651956183e+03 -999 3.51515777e-01 3.396869258e-01 -1.33576979e-01
 75 6 1281933 1.1459473162191642e+05 8.5964168909022424e+04 1.8027061437490080e-14 6.5845209495643372e+04 1.1764390947725880e+05 2.2916946103641867e+03 -999 3.51683937e-01 3.371074569e-01 -1.33630393e-01
 76 6 1281933 1.0024041779304434e+05 8.0607265122354234e+04 1.7856962501456950e-14 6.0248483325683796e+04 1.0414377669352660e+05 2.0948744031050455e+03 -999 3.51815002e-01 3.349243779e-01 -1.33666709e-01
 77 6 1281933 8.3082284918169753e+04 7.4837682708144828e+04 1.7634516582383026e-14 5.3717549212055492e+04 8.6671255180134787e+04 1.9099933816171999e+03 -999 3.51975098e-01 3.322558431e-01 -1.33711268e-01
 78 6 1281933 6.9185129715249903e+04 6.9156520203110500e+04 1.7376036202958488e-14 4.6786199986760825e+04 7.1296419009172576e+04 1.7774909956627669e+03 -999 3.52166131e-01 3.290498409e-01 -1.33765767e-01
 79 6 1281933 6.2165830107836322e+04 6.4808445118069401e+04 1.7160157474877244e-14 4.1230805648338413e+04 6.3458315524416161e+04 1.6712865939843443e+03 -999 3.52350763e-01 3.258934540e-01 -1.33821975e-01
 80 6 1281933 5.7356721019877659e+04 6.1329429360914706e+04 1.7046754605185408e-14 3.6956750550431156e+04 5.8340850474357438e+04 1.5892430658471033e+03 -999 3.52514861e-01 3.229984530e-01 -1.33877496e-01
 81 6 1281933 4.9941225457186891e+04 5.7853737149474364e+04 1.6874541916238873e-14 3.3574469794636636e+04 5.1178153993873872e+04 1.4929416002550622e+03 -999 3.52629553e-01 3.204071958e-01 -1.33903863e-01
 82 6 1281933 4.1161700417599721e+04 5.3976278844868277e+04 1.6645430269773169e-14 2.9673897817752593e+04 4.2233584720045226e+04 1.4625394325272209e+03 -999 3.52765873e-01 3.171620267e-01 -1.33932865e-01
 83 6 1281933 3.3549494580584353e+04 4.9960797464260606e+04 1.6356196743891232e-14 2.5590112980916067e+04 3.4109364572789709e+04 1.5677887574466945e+03 -999 3.52921259e-01 3.131533809e-01 -1.33963471e-01
 84 6 1281933 2.9062878323488872e+04 4.6728497607468540e+04 1.6094366629192748e-14 2.2418497398385090e+04 2.9402963336633286e+04 1.8314516116384643e+03 -999 3.53059005e-01 3.091186815e-01 -1.33989799e-01
 85 6 1281933 2.6168789171063549e+04 4.4221716334261044e+04 1.5883731886101834e-14 2.0203722568040030e+04 2.6494566305167431e+04 2.2031221573795774e+03 -999 3.53169428e-01 3.052964446e-01 -1.34012598e-01
 86 6 1281933 2.2842692381779743e+04 4.1688612705637621e+04 1.5673594740618329e-14 1.8383829671754003e+04 2.3439589235604650e+04 2.6895120717354412e+03 -999 3.53203124e-01 3.012303201e-01 -1.33963242e-01
 87 6 1281933 1.9434571690273122e+04 3.8866264912873667e+04 1.5407247639680541e-14 1.6530160404847491e+04 2.0338014648147688e+04 3.3879645067882730e+03 -999 3.53245986e-01 2.958899169e-01 -1.33888000e-01
 88 6 1281933 1.7223475619816789e+04 3.6147356524624483e+04 1.5077059356106624e-14 1.5027888535516084e+04 1.8548801991633631e+04 5.3595427105643612e+03 -999 3.53316434e-01 2.891631472e-01 -1.33788901e-01
 89 6 1281933 1.6573699412346614e+04 3.4258487775385358e+04 1.4757739223173722e-14 1.4241096166027170e+04 1.8360526931559780e+04 1.1031728606231050e+04 -999 3.53416117e-01 2.822585932e-01 -1.33691711e-01
 90 6 1281933 1.6634265448025264e+04 3.3109607461143743e+04 1.4566122408427744e-14 1.3937466857268333e+04 1.8805038947071698e+04 1.6869672876362696e+04 -999 3.53562599e-01 2.753804712e-01 -1.33629907e-01
 91 6 1281933 1.5844002410851876e+04 3.0658005327779618e+04 1.4167264018028259e-14 1.3128304938617797e+04 1.8252161890373609e+04 4.5636653661164390e+04 -999 3.53816403e-01 2.658772746e-01 -1.33627766e-01
 92 6 1281933 1.5934657567971970e+04 2.9194486167373216e+04 1.3872144305475645e-14 1.2789298266903546e+04 1.8553080535802063e+04 1.2705518216969003e+05 -999 3.54238431e-01 2.521190824e-01 -1.33794121e-01
 93 6 1281933 1.6758215674866842e+04 3.1149016531097517e+04 1.3919139897841876e-14 1.2702579308463473e+04 1.9728122501425536e+04 2.3992856478375223e+05 -999 3.54748969e-01 2.346879919e-01 -1.34368731e-01
 94 6 1281933 1.7367329084767007e+04 4.1688528381909673e+04 1.3667571495861959e-14 1.2864284170539953e+04 2.5189468781415988e+04 2.8525525917402800e+05 -999 3.54846489e-01 2.230600376e-01 -1.35029004e-01
 95 6 1281933 1.7488880156927466e+04 4.4553403882193350e+04 1.3406411312739536e-14 1.3392231029745963e+04 3.2328179414903821e+04 2.6224405694498034e+05 -999 3.54742478e-01 2.176159811e-01 -1.35396653e-01
 96 6 1281933 1.6980269623333301e+04 2.3223766392938895e+04 1.3081907136239252e-14 1.3021993308601635e+04 1.8954730961383018e+04 3.9537438026926952e+05 -999 3.54425507e-01 1.954951547e-01 -1.36816856e-01
 97 6 1281933 1.6522963667340038e+04 2.1416569739216102e+04 1.2494127705630459e-14 1.2207140400829108e+04 1.7958206955026209e+04 4.5696925982643192e+05 -999 3.53002417e-01 1.751493603e-01 -1.38297264e-01
 98 6 1281933 1.6088310055265965e+04 3.6910574311141216e+04 1.1676751981529469e-14 1.2087606048125957e+04 1.8571780605287717e+04 4.5919343184625107e+05 -999 3.50091128e-01 1.571882138e-01 -1.39363044e-01
 99 6 1281933 1.5903573565459701e+04 4.4958987406155924e+04 1.1031947633842899e-14 1.1803206855227685e+04 1.8700801317106507e+04 5.6892588911337801e+05 -999 3.49596751e-01 1.554759933e-01 -1.39381522e-01
 100 6 1281933 1.5816329338134918e+04 4.6414399408583311e+04 1.0781974076600081e-14 1.1644420030862462e+04 1.8149762667987274e+04 2.4614086422061166e+05 -999 3.49285040e-01 1.544697668e-01 -1.39380741e-01
 101 6 1281933 1.4420616281123886e+04 2.3343327401388429e+04 1.5312317703481068e-12 1.0260384538784809e+04 1.5102757605252540e+04 2.2722362731424900e+05 -999 3.43311936e-01 1.369199604e-01 -1.38940087e-01
 102 6 1281933 1.3267798097781806e+04 2.1786017438330317e+04 1.8076799581719041e-12 8.7232057946495243e+03 1.3751672045464566e+04 1.8106257807439918e+05 -999 3.39438814e-01 1.280369551e-01 -1.37848053e-01
 103 6 1281933 1.2699712060965443e+04 2.0242356374442988e+04 1.8532103520289643e-12 7.8330083776725860e+03 1.3039927261576711e+04 5.3691264539913151e+04 -999 3.37834469e-01 1.236134256e-01 -1.37119319e-01
 104 6 1281933 1.2464102802215419e+04 1.9892943285113764e+04 1.8544971745651544e-12 7.3012470145345123e+03 1.2697975976408041e+04 2.5624693166968507e+04 -999 3.37069096e-01 1.206404182e-01 -1.36621819e-01
 105 6 1281933 1.2448676704671987e+04 2.3167312931294771e+04 1.8421587375926761e-12 6.9837545491195260e+03 1.3020286403436125e+04 1.7977094390445905e+04 -999 3.36763133e-01 1.185556883e-01 -1.36294647e-01
 106 6 1281933 1.1030665477755529e+04 1.8581769112825485e+04 1.5478316117938412e-12 6.2392800195052032e+03 1.1275608669034120e+04 1.5170118197456974e+04 -999 3.38554578e-01 1.141407314e-01 -1.35998994e-01
 107 6 1281933 9.7153902965636062e+03 1.4557547581417601e+04 1.2082012369390909e-12 5.6722330993880605e+03 9.6211515707679318e+03 1.6056545182077572e+04 -999 3.43885236e-01 1.079555319e-01 -1.36409818e-01
 108 6 1281933 9.3119837644756299e+03 1.3017370130159336e+04 9.7803126101196604e-13 5.5199470174865410e+03 9.0225501151016961e+03 2.2589459669691412e+04 -999 3.53222674e-01 1.027140234e-01 -1.38174275e-01
 109 6 1281933 9.5084714875126338e+03 1.2735675253043411e+04 8.7777709078881181e-13 5.3903749289027946e+03 9.1757951781532265e+03 1.6562955636501534e+04 -999 3.60629021e-01 1.001674020e-01 -1.39919668e-01
 110 6 1281933 9.1879037236971872e+03 1.2481869001298061e+04 8.1859408084620538e-13 5.2725212065257083e+03 8.8586949743968198e+03 1.3408646896224591e+04 -999 3.66454955e-01 9.853102489e-02 -1.41375347e-01
 111 6 1281933 6.8462215002341882e+03 9.2698498838615596e+03 6.9113325943493249e-13 4.1696008878658058e+03 6.4992700659272450e+03 2.5642164559832057e+04 -999 3.95137043e-01 9.315262503e-02 -1.48528860e-01
 112 6 1281933 5.6881966352235331e+03 7.3381350299384112e+03 7.9172498518985382e-13 3.3515712450324349e+03 5.4429978498125429e+03 2.1471085541438268e+04 -999 4.40851125e-01 8.761036588e-02 -1.60692326e-01
 113 6 1281933 5.0616618244960709e+03 6.0713556413937422e+03 8.1056434704777545e-13 2.9064813026993816e+03 4.8326292811901430e+03 5.0180655480167974e+04 -999 5.01851774e-01 8.297067919e-02 -1.77084130e-01
 114 6 1281933 4.8723158444058390e+03 5.7281689740265065e+03 6.7738648789697550e-13 2.5599148907874919e+03 4.6932502574805931e+03 7.7750650426778258e+04 -999 5.64731516e-01 7.944813855e-02 -1.92019022e-01
 115 6 1281933 4.7656857150042233e+03 6.2727254264717285e+03 5.3008587492835493e-13 2.2949797364230085e+03 4.7332124179490838e+03 5.6363728256966380e+04 -999 6.25143648e-01 7.675924695e-02 -2.03106797e-01
 116 6 1281933 3.5335121193269397e+03 4.6371998044855563e+03 1.0793090621334364e-12 1.4943605764239364e+03 3.4403849923655730e+03 5.4273277388698931e+04 -999 6.84683244e-01 7.662729360e-02 -2.08254887e-01
 117 6 1281933 2.9873796870436836e+03 3.7106104348865920e+03 1.5128900433670441e-12 1.0957734597751253e+03 2.8435462037136872e+03 3.7582211871292602e+04 -999 7.37157090e-01 7.714119284e-02 -2.10893951e-01
 118 6 1281933 2.7587494165611188e+03 3.3269978999063273e+03 2.0659995806462541e-12 9.5437685886003294e+02 2.5972536776129868e+03 1.8967527448782872e+04 -999 7.67282126e-01 7.757537960e-02 -2.11183770e-01
 119 6 1281933 2.6397251974584183e+03 3.1245778500110928e+03 2.2087330385520455e-12 8.9013196720238363e+02 2.4666813919199572e+03 9.9245888339830126e+03 -999 7.87419824e-01 7.791138965e-02 -2.10939858e-01
 120 6 1281933 2.5676743947597383e+03 3.0161894565397547e+03 1.6014301963321144e-12 8.4873609957849010e+02 2.3897070989382787e+03 6.7946674590740813e+03 -999 8.00954007e-01 7.815076703e-02 -2.10577952e-01
 121 6 1281933 2.3285283027719511e+03 3.0195813084886508e+03 1.6033695610433657e-12 9.5749130899166698e+02 2.1627675098563236e+03 7.5829847682721320e+03 -999 8.44958371e-01 7.974518001e-02 -2.10575672e-01
 122 6 1281933 2.2317549570565880e+03 3.1474759680832208e+03 1.9847227365258426e-12 1.1957580932045653e+03 2.0712143960072203e+03 7.2843675813866375e+03 -999 8.74631398e-01 8.055268087e-02 -2.09812989e-01
 123 6 1281933 2.1863840659516741e+03 3.2156958365430796e+03 2.5430591671823720e-12 1.3469656646085234e+03 2.0195638181139007e+03 7.5305405450106473e+03 -999 9.03977180e-01 8.121630274e-02 -2.08479861e-01
 124 6 1281933 2.1629748413023540e+03 3.2840036739667985e+03 2.9258104423516488e-12 1.3956363401975459e+03 1.9941329312432795e+03 7.0463611082509906e+03 -999 9.19341538e-01 8.145386772e-02 -2.07466847e-01
 125 6 1281933 2.1821275138198494e+03 3.2486043828961529e+03 3.2206122934601680e-12 1.3666306265279379e+03 1.9990426752815340e+03 7.8246788868232761e+03 -999 9.36224291e-01 8.163706788e-02 -2.06198191e-01
 126 6 1281933 2.1187312503495814e+03 3.1203893494523245e+03 2.8971167004907198e-12 1.2828675539505680e+03 1.9379117052997192e+03 6.2833452194802867e+03 -999 9.43007261e-01 8.177329074e-02 -2.05799999e-01
 127 6 1281933 2.0651102639764340e+03 2.9375826894578868e+03 2.5046232744479334e-12 1.1800121258078377e+03 1.8835037171098006e+03 6.6274952589016693e+03 -999 9.51291551e-01 8.193063387e-02 -2.05264614e-01
 128 6 1281933 2.0159539250968551e+03 2.7183454444293284e+03 2.0980577192101557e-12 1.0660407697285430e+03 1.8326945152349479e+03 6.9850732314382531e+03 -999 9.61161203e-01 8.210080946e-02 -2.04563672e-01
 129 6 1281933 2.0035888120053592e+03 2.4848575931429809e+03 1.7295665272993051e-12 9.4257374475478764e+02 1.8073863940190427e+03 7.6379283351812010e+03 -999 9.73299876e-01 8.227394274e-02 -2.03616651e-01
 130 6 1281933 2.0025136981532794e+03 2.4254329125273425e+03 1.6693616831815544e-12 9.0898514632885690e+02 1.8014003039418085e+03 6.5752630366544463e+03 -999 9.79010116e-01 8.232941724e-02 -2.03127511e-01
 131 6 1281933 1.9543036045742585e+03 2.4155354681823269e+03 1.4966385666669641e-12 8.7863249156014365e+02 1.7546511638400739e+03 7.0646723642442948e+03 -999 9.85739042e-01 8.242961154e-02 -2.02711314e-01
 132 6 1281933 1.9304036047634902e+03 2.4115801231590062e+03 1.3544458257881133e-12 8.5810338663515779e+02 1.7274709396993244e+03 7.6766156530800436e+03 -999 9.93677549e-01 8.251055940e-02 -2.02187307e-01
 133 6 1281933 1.9243329930943528e+03 2.3960888409198124e+03 1.2964348963857884e-12 8.3879262493813133e+02 1.7142562938201027e+03 8.2631544662319593e+03 -999 1.00219447e+00 8.255211702e-02 -2.01587813e-01
 134 6 1281933 1.9317361348933971e+03 2.4014592771318685e+03 1.3274533787578136e-12 8.2096682797610538e+02 1.7149602655752799e+03 8.4667518367749690e+03 -999 1.00993104e+00 8.255955830e-02 -2.01063948e-01
 135 6 1281933 1.9601333969209820e+03 2.4377123391305186e+03 1.3887397910693975e-12 8.0357122906864299e+02 1.7363406657494709e+03 8.4148368994913999e+03 -999 1.01591297e+00 8.254498303e-02 -2.00682468e-01
 136 6 1281933 1.9203898091347448e+03 2.4724062120980780e+03 1.2847383772849135e-12 8.0850248883086590e+02 1.6938485815786905e+03 8.3290875925413020e+03 -999 1.02037287e+00 8.260025444e-02 -2.00662594e-01
 137 6 1281933 1.8986728648353469e+03 2.5062449340512781e+03 1.1889682955406503e-12 8.4672042581814412e+02 1.6688626697497132e+03 9.1805711746023189e+03 -999 1.02603652e+00 8.263483257e-02 -2.00508216e-01
 138 6 1281933 1.8845433503925626e+03 2.5402444304696623e+03 1.1666041355008528e-12 8.9703816468045306e+02 1.6536770101033514e+03 1.0035643518312894e+04 -999 1.03266897e+00 8.263023324e-02 -2.00219880e-01
 139 6 1281933 1.8985742053196268e+03 2.5727749027294421e+03 1.2644372220738401e-12 9.5453390579842880e+02 1.6609043319770208e+03 1.1205618482366059e+04 -999 1.04068073e+00 8.258267077e-02 -1.99845415e-01
 140 6 1281933 1.9229565924276599e+03 2.5912047088506251e+03 1.3917483039628986e-12 9.7812971086616301e+02 1.6783843711172440e+03 1.1139680251015465e+04 -999 1.04541463e+00 8.253595306e-02 -1.99647590e-01