TITLE = "005.02 ALPHA 3.10 GRIDLEVEL 6"

VARIABLES = "ITERATION"  "GRID_LEVEL"  "GRID_SIZE"  "CONTINUITY"  "MOMENTUMX"  "MOMENTUMY"  "MOMENTUMZ"  "ENERGY"  "TURB1"  "TURB2"  "CL_TOT"  "CD_TOT"  "CM_TOT"

DATASETAUXDATA ParticipantID   = "005"
DATASETAUXDATA SubmissionDate  = "10-31-2024"
DATASETAUXDATA Name            = "Jeffrey A. Housman"
DATASETAUXDATA Email           = "jeffrey.a.housman@nasa.gov"
DATASETAUXDATA Institution     = "NASA Ames Research Center"
DATASETAUXDATA SolverName      = "LAVA Curvilinear"
DATASETAUXDATA BasicAlgorithm  = "RANS"
DATASETAUXDATA TurbulenceModel = "SA-RC-comp-neg"
DATASETAUXDATA GridId          = "Multiblock"
DATASETAUXDATA Discretization  = "Finite difference"
DATASETAUXDATA Order           = "2"
DATASETAUXDATA DistanceCalc    = "Exact"
DATASETAUXDATA Notes           = " "

ZONE T = "005.02 - Alpha 3.10 - Grid Level 6"
AUXDATA Tstatic         = "271.0"
AUXDATA Deltat          = "-999"
AUXDATA GridFileName    = "ONERA-OAT15A_230mmChord_780mmSpan_upZ_2024_06_25-Structured_23mm_Level-6.x"
AUXDATA Misc            = " "
 0 6 1281933 6.2007532754260546e+05 2.2317157057542494e+06 1.0839306084067811e-13 6.2933057319882745e+05 6.7092086360600451e+05 4.1587350671507823e+06 -999 1.82161660e-02 1.052682589e+00 -1.05912257e-02
 1 6 1281933 9.4667362641615421e+05 1.6298707014799635e+06 9.0823679683357687e-14 4.6455148917671066e+05 9.2434481638933229e+05 2.6950583005859205e+06 -999 4.95997807e-02 9.452130888e-01 -2.37734292e-02
 2 6 1281933 1.1635299660611367e+06 1.3678238791299686e+06 7.8084478613293810e-14 5.0771494623909181e+05 1.1183232190174439e+06 1.7538323318028168e+06 -999 8.91525752e-02 8.798010218e-01 -4.03133251e-02
 3 6 1281933 1.3492043177383915e+06 1.2083611426887605e+06 6.8506830432366363e-14 6.0677921132733533e+05 1.2956393382911463e+06 1.1477140468743013e+06 -999 1.26330051e-01 8.353662823e-01 -5.58754586e-02
 4 6 1281933 1.5009591304485237e+06 1.1002953271321217e+06 6.1134454572616593e-14 7.2689922320051643e+05 1.4571527724530795e+06 7.4562580466539017e+05 -999 1.59553037e-01 8.036264272e-01 -6.84208731e-02
 5 6 1281933 1.6639110113095003e+06 1.0977081033950185e+06 5.5375014334167716e-14 8.5055987248929404e+05 1.6601744497807487e+06 4.8059644654381555e+05 -999 1.84490662e-01 7.782396813e-01 -7.78135999e-02
 6 6 1281933 1.5048953551932178e+06 1.1008615796572932e+06 5.0946259537752543e-14 8.8133427554229845e+05 1.5047605670465862e+06 2.8721629777465016e+05 -999 2.01843228e-01 7.486437268e-01 -8.50184759e-02
 7 6 1281933 1.5313050498005536e+06 1.0950357102188943e+06 4.6817878022185369e-14 9.1417338277009455e+05 1.5312897574984152e+06 1.6141378764793018e+05 -999 2.16774160e-01 7.170228844e-01 -9.16204472e-02
 8 6 1281933 1.6148653060240059e+06 1.0482068743953779e+06 4.3772878629398017e-14 9.4189811080400087e+05 1.6321942369641075e+06 1.2577512279821286e+05 -999 2.27971062e-01 6.882051040e-01 -9.63633555e-02
 9 6 1281933 1.8460795191065068e+06 1.0951673117109695e+06 4.1489996606654858e-14 9.9840504521340621e+05 1.9325691925337389e+06 1.0767452811093692e+05 -999 2.36708868e-01 6.622437887e-01 -9.98354758e-02
 10 6 1281933 1.8684858142839919e+06 1.0255915907817759e+06 3.9840175391976361e-14 1.0165513395833949e+06 1.9422561750681617e+06 9.5864663667004512e+04 -999 2.42958778e-01 6.417350578e-01 -1.02291325e-01
 11 6 1281933 1.7370983005188005e+06 1.0418447735887094e+06 3.8331083368751484e-14 9.8622443710328161e+05 1.8078674920145406e+06 8.7173555514150081e+04 -999 2.48062743e-01 6.237236430e-01 -1.04349974e-01
 12 6 1281933 1.6051482727582741e+06 9.3518358000539546e+05 3.6649413627123100e-14 9.5738841671809205e+05 1.6284558949132557e+06 8.0649331334748887e+04 -999 2.53465637e-01 6.034267231e-01 -1.06432460e-01
 13 6 1281933 1.6434893026841716e+06 9.8386635096193606e+05 3.5339028877594216e-14 9.6549149988279969e+05 1.6815693962789760e+06 7.5322830068357129e+04 -999 2.57558040e-01 5.867780186e-01 -1.07993927e-01
 14 6 1281933 1.8995502705159311e+06 1.0789804589189768e+06 3.4210539541813762e-14 1.0289035320053508e+06 2.0066680559284857e+06 7.0986984422108624e+04 -999 2.61122286e-01 5.711896529e-01 -1.09428480e-01
 15 6 1281933 1.7614899961190205e+06 8.7757357933790644e+05 3.3511007696534950e-14 9.6453930385211576e+05 1.8317310276593750e+06 6.6770476656308034e+04 -999 2.63000222e-01 5.622355006e-01 -1.10239009e-01
 16 6 1281933 1.6300158288944960e+06 8.8917486183719977e+05 3.2595076567571611e-14 9.4294454022789211e+05 1.6776435527983259e+06 6.2672900812292515e+04 -999 2.64993558e-01 5.517826922e-01 -1.11095777e-01
 17 6 1281933 1.5127015009485604e+06 8.7430816379361879e+05 3.1680989788940317e-14 9.0726772634172067e+05 1.5351660912157367e+06 5.9451648661126252e+04 -999 2.66715935e-01 5.417780673e-01 -1.11776866e-01
 18 6 1281933 1.6623604112014307e+06 9.3012744399988919e+05 3.0802718486279726e-14 9.3773761883088318e+05 1.7203941310344134e+06 5.6891618686977519e+04 -999 2.68349278e-01 5.311259008e-01 -1.12348480e-01
 19 6 1281933 1.6257582296147216e+06 8.1283649498583586e+05 3.0221725285460818e-14 9.2031597276857879e+05 1.6665234584151076e+06 5.4462694114989616e+04 -999 2.69346967e-01 5.238385795e-01 -1.12642882e-01
 20 6 1281933 1.8014030160828773e+06 9.4488338344453194e+05 2.9718145036672330e-14 9.3471927860306506e+05 1.9091457631592983e+06 5.2234468291021789e+04 -999 2.70263719e-01 5.166843203e-01 -1.12894584e-01
 21 6 1281933 1.5245631650296438e+06 8.1665011666923040e+05 2.9117410226957194e-14 8.7331350136505801e+05 1.5889962361168731e+06 4.8854330715340708e+04 -999 2.71046126e-01 5.094244996e-01 -1.13097395e-01
 22 6 1281933 1.4194239424481667e+06 8.0688187246419175e+05 2.8559262974642174e-14 8.4327235726188833e+05 1.4431956117434879e+06 4.6332292886718904e+04 -999 2.71787097e-01 5.019901894e-01 -1.13290682e-01
 23 6 1281933 1.4758441995322637e+06 7.7404995451771864e+05 2.8098536469646384e-14 8.4652545335046074e+05 1.5055174843833933e+06 4.4370679395291416e+04 -999 2.72471857e-01 4.945480267e-01 -1.13477555e-01
 24 6 1281933 1.5252436880782018e+06 7.6638214029657294e+05 2.7758158401817447e-14 8.3379948041590245e+05 1.5851884540628886e+06 4.2536532955985502e+04 -999 2.72949622e-01 4.888910816e-01 -1.13614386e-01
 25 6 1281933 1.7364825024667582e+06 9.6540126646788872e+05 2.7481834273321937e-14 8.8653044662673981e+05 1.8612566223548148e+06 4.1072873697299365e+04 -999 2.73427503e-01 4.829039588e-01 -1.13755464e-01
 26 6 1281933 1.4683677945037775e+06 8.3795044692272274e+05 2.7037184816431221e-14 8.0876076369121438e+05 1.5619750975317718e+06 3.8329950676399632e+04 -999 2.73761370e-01 4.779528703e-01 -1.13851089e-01
 27 6 1281933 1.3002854830664799e+06 7.2175567268094840e+05 2.6597605890424684e-14 7.6273781529362104e+05 1.3342934453815606e+06 3.6358308359671384e+04 -999 2.74137792e-01 4.722661676e-01 -1.13958986e-01
 28 6 1281933 1.3072814179562582e+06 7.0510454466642509e+05 2.6248904963564519e-14 7.4986363097042008e+05 1.3320169032388024e+06 3.4813410191945492e+04 -999 2.74499402e-01 4.666861219e-01 -1.14060412e-01
 29 6 1281933 1.4083152935649168e+06 7.2784234808606643e+05 2.6037991294623226e-14 7.4919405976052396e+05 1.4777682339539602e+06 3.3435289398055960e+04 -999 2.74793858e-01 4.620887917e-01 -1.14140931e-01
 30 6 1281933 1.5749049083804938e+06 8.6738415137238486e+05 2.5870629920580199e-14 7.8563152772141446e+05 1.6887291661452497e+06 3.2273276557842066e+04 -999 2.75077237e-01 4.576481606e-01 -1.14217645e-01
 31 6 1281933 1.3247469389027199e+06 7.5649850794937368e+05 2.5486731033852545e-14 7.1665989115342963e+05 1.4159474909186044e+06 3.0142140845448463e+04 -999 2.75303956e-01 4.535835090e-01 -1.14275689e-01
 32 6 1281933 1.1530217246674800e+06 6.4551820154092996e+05 2.5084111452878375e-14 6.6920615239635331e+05 1.1907285672852367e+06 2.8653873589534654e+04 -999 2.75553177e-01 4.490971829e-01 -1.14340792e-01
 33 6 1281933 1.1735630173668247e+06 6.3727714495321899e+05 2.4732351406788462e-14 6.5628813751423825e+05 1.2019750539056140e+06 2.7478400764482143e+04 -999 2.75823590e-01 4.442031932e-01 -1.14413463e-01
 34 6 1281933 1.2464835977349957e+06 6.2547717886068311e+05 2.4538066705321955e-14 6.5669411049219186e+05 1.3008362952832310e+06 2.6403221491981887e+04 -999 2.76032447e-01 4.403980915e-01 -1.14471513e-01
 35 6 1281933 1.3770117672270625e+06 7.4175141645133891e+05 2.4442013010367814e-14 6.6885862401157373e+05 1.4838870953149213e+06 2.5409230855414229e+04 -999 2.76214833e-01 4.370536869e-01 -1.14523511e-01
 36 6 1281933 1.1662388969726679e+06 6.3185926635554607e+05 2.4183863941850544e-14 6.1877850523750752e+05 1.2493443099537087e+06 2.3745431697319436e+04 -999 2.76373308e-01 4.337626407e-01 -1.14567394e-01
 37 6 1281933 1.0015080247726674e+06 5.7026035616874218e+05 2.3903747117268527e-14 5.7436177775002806e+05 1.0371398984547836e+06 2.2571501610977335e+04 -999 2.76566211e-01 4.298051179e-01 -1.14622117e-01
 38 6 1281933 9.9192911530704750e+05 5.4994639787445415e+05 2.3730690432342154e-14 5.5415183637765190e+05 1.0122475849087778e+06 2.1631264618343117e+04 -999 2.76759952e-01 4.258853012e-01 -1.14678424e-01
 39 6 1281933 1.1017276773531430e+06 5.8322786920126167e+05 2.3693027696473907e-14 5.5791616824412206e+05 1.1563976252878460e+06 2.0791210616302484e+04 -999 2.76930664e-01 4.224798936e-01 -1.14728946e-01
 40 6 1281933 1.2257175672312705e+06 6.5782954588369746e+05 2.3757047467941330e-14 5.7777867986641475e+05 1.3140359904599281e+06 2.0027445503812727e+04 -999 2.77084512e-01 4.194462276e-01 -1.14775002e-01
 41 6 1281933 1.0356452773878550e+06 5.7917202026596107e+05 2.3497454821825173e-14 5.2936944684660179e+05 1.1156892685340736e+06 1.8708250198851933e+04 -999 2.77211011e-01 4.166950382e-01 -1.14811203e-01
 42 6 1281933 8.6534461199971370e+05 4.9012908820303797e+05 2.3183897080214981e-14 4.8549223227858276e+05 9.0283575530104979e+05 1.7777192608539048e+04 -999 2.77367925e-01 4.133638548e-01 -1.14856625e-01
 43 6 1281933 8.3788452921471966e+05 4.6641464062667330e+05 2.2915146895726486e-14 4.6326644692267588e+05 8.5116914283228456e+05 1.7029965577165538e+04 -999 2.77534490e-01 4.099210325e-01 -1.14905402e-01
 44 6 1281933 9.2139255283809884e+05 4.8777154532797926e+05 2.2789386316182472e-14 4.6270825344381382e+05 9.6015291669987794e+05 1.6365110027777542e+04 -999 2.77681252e-01 4.069598982e-01 -1.14948800e-01
 45 6 1281933 1.0373246379817586e+06 5.7018868491979362e+05 2.2764770935993538e-14 4.7499326106873137e+05 1.1147525353628707e+06 1.5747613474983786e+04 -999 2.77810919e-01 4.043894070e-01 -1.14987421e-01
 46 6 1281933 8.7521066932958947e+05 4.7979358243938634e+05 2.2542192530151527e-14 4.3629982359436533e+05 9.4455332231397007e+05 1.4702577514619161e+04 -999 2.77923852e-01 4.019565708e-01 -1.15019581e-01
 47 6 1281933 7.2728089076367614e+05 4.1317017711196223e+05 2.2275499568270197e-14 4.0004617367157765e+05 7.6376920999351121e+05 1.3931739541276611e+04 -999 2.78058839e-01 3.991208263e-01 -1.15058501e-01
 48 6 1281933 6.8309557919222000e+05 3.8186905201977235e+05 2.2041821710550772e-14 3.7669655206765275e+05 6.9132680441931204e+05 1.3295336912116712e+04 -999 2.78207899e-01 3.960699592e-01 -1.15102020e-01
 49 6 1281933 7.4442474584043014e+05 3.9276327947408945e+05 2.1932092625025110e-14 3.7237351060605125e+05 7.6659639398036338e+05 1.2734609900859750e+04 -999 2.78346524e-01 3.933008473e-01 -1.15142963e-01
 50 6 1281933 8.3000431563199649e+05 4.3444292294478777e+05 2.1934789685002703e-14 3.7841149041609507e+05 8.7906823406437330e+05 1.2218509313299646e+04 -999 2.78468667e-01 3.909061480e-01 -1.15179385e-01
 51 6 1281933 7.0880836968621949e+05 3.7854611491150560e+05 2.1743102937248734e-14 3.4861953071223345e+05 7.5965455682779988e+05 1.1389417889058686e+04 -999 2.78575161e-01 3.886619100e-01 -1.15209958e-01
 52 6 1281933 5.8722926364047942e+05 3.3164683051180653e+05 2.1516131038076715e-14 3.1850110242757545e+05 6.1828013980895176e+05 1.0744752418885482e+04 -999 2.78702329e-01 3.860468368e-01 -1.15246933e-01
 53 6 1281933 5.4249106374471367e+05 3.0428365663329500e+05 2.1323284265256653e-14 2.9681576752002264e+05 5.4981574087449873e+05 1.0194420492340209e+04 -999 2.78845439e-01 3.831794538e-01 -1.15289077e-01
 54 6 1281933 5.8209037046257860e+05 3.0908610103676456e+05 2.1239195374642441e-14 2.8994136274289730e+05 5.9546704450969142e+05 9.7051690550917301e+03 -999 2.78980779e-01 3.805363034e-01 -1.15329426e-01
 55 6 1281933 6.3905144389316591e+05 3.3422901348699746e+05 2.1262526909007989e-14 2.9085466210050351e+05 6.7187218222203117e+05 9.2633670801372264e+03 -999 2.79100438e-01 3.782472314e-01 -1.15365515e-01
 56 6 1281933 5.4992503994383046e+05 2.9314232820280129e+05 2.1070483631535819e-14 2.6888691684202955e+05 5.8613203034853819e+05 8.6294679550932033e+03 -999 2.79204833e-01 3.761299063e-01 -1.15396233e-01
 57 6 1281933 4.5585974347568827e+05 2.5814963723773116e+05 2.0833068874055060e-14 2.4560176251945278e+05 4.8098507472233218e+05 8.1027004588851996e+03 -999 2.79330962e-01 3.736347683e-01 -1.15433919e-01
 58 6 1281933 4.1368656607295806e+05 2.3485980998118283e+05 2.0615463705608231e-14 2.2538745990652172e+05 4.2154673739452771e+05 7.6346503812292622e+03 -999 2.79478703e-01 3.708318038e-01 -1.15478374e-01
 59 6 1281933 4.3447246739269642e+05 2.3324951560941839e+05 2.0520091302955739e-14 2.1619004599337158e+05 4.4328632219802268e+05 7.2253870732358228e+03 -999 2.79622213e-01 3.681729407e-01 -1.15522393e-01
 60 6 1281933 4.6830838190171396e+05 2.4881287184061381e+05 2.0544412905867359e-14 2.1324398419592509e+05 4.8941959578060400e+05 6.8374260575458720e+03 -999 2.79748615e-01 3.658747998e-01 -1.15562008e-01
 61 6 1281933 4.0406180931989377e+05 2.1896776817520076e+05 2.0353566652160115e-14 1.9671269536873366e+05 4.2849563916519139e+05 6.3436175686095385e+03 -999 2.79857656e-01 3.638001135e-01 -1.15596106e-01
 62 6 1281933 3.3457945137006190e+05 1.9328388270483827e+05 2.0113023008784437e-14 1.7856122593653254e+05 3.5370866843387968e+05 5.9179986045705637e+03 -999 2.79988858e-01 3.613460717e-01 -1.15637783e-01
 63 6 1281933 2.9845210392967751e+05 1.7534841273598935e+05 1.9878293134268810e-14 1.6272824964077128e+05 3.0655644158874208e+05 5.5320534520733354e+03 -999 2.80140796e-01 3.585554705e-01 -1.15686881e-01
 64 6 1281933 3.0430852172973455e+05 1.7071412027420147e+05 1.9751663012371840e-14 1.5387154844529839e+05 3.1080632357209281e+05 5.1950395093577126e+03 -999 2.80288090e-01 3.558966270e-01 -1.15735484e-01
 65 6 1281933 3.1874772826471325e+05 1.7371943372028798e+05 1.9739395797733493e-14 1.4910393236341514e+05 3.3038222802937106e+05 4.9022363941983958e+03 -999 2.80420712e-01 3.535305951e-01 -1.15780398e-01
 66 6 1281933 2.7687999539485428e+05 1.5721645573881076e+05 1.9559274571047633e-14 1.3804784193684952e+05 2.9153489587480249e+05 4.4996711056610839e+03 -999 2.80529227e-01 3.514858096e-01 -1.15816987e-01
 67 6 1281933 2.2921399530912036e+05 1.4138332043570073e+05 1.9335414059733253e-14 1.2532200014510324e+05 2.4195267727913108e+05 4.1662730936439029e+03 -999 2.80661038e-01 3.490269178e-01 -1.15861824e-01
 68 6 1281933 1.9998700653095043e+05 1.2880645452615349e+05 1.9096373586683929e-14 1.1325359805389594e+05 2.0657377687401196e+05 3.8555405868001144e+03 -999 2.80815216e-01 3.461818143e-01 -1.15914850e-01
 69 6 1281933 1.9689011451574191e+05 1.2310980536559057e+05 1.8954297758870496e-14 1.0529380003403811e+05 2.0162438501579341e+05 3.6026496162267008e+03 -999 2.80965414e-01 3.434367882e-01 -1.15967491e-01
 70 6 1281933 1.9913550768461506e+05 1.2073076689992740e+05 1.8934591916981747e-14 9.9965377821200338e+04 2.0535907602540642e+05 3.3698117709040080e+03 -999 2.81101001e-01 3.409703500e-01 -1.16016536e-01
 71 6 1281933 1.7366839544592868e+05 1.1155080509017344e+05 1.8770545260362136e-14 9.2855602772571568e+04 1.8175685433715375e+05 3.0788159574628876e+03 -999 2.81207893e-01 3.388877318e-01 -1.16054180e-01
 72 6 1281933 1.4378659030038698e+05 1.0222525067930538e+05 1.8595136572537956e-14 8.4454099240718773e+04 1.5119242443764547e+05 2.8265165925332140e+03 -999 2.81338070e-01 3.363668089e-01 -1.16100257e-01
 73 6 1281933 1.2256835048437063e+05 9.3988385004885233e+04 1.8443774645730589e-14 7.5851012694716002e+04 1.2685940117266876e+05 2.6059336247015558e+03 -999 2.81492187e-01 3.334024989e-01 -1.16155343e-01
 74 6 1281933 1.1564894290225368e+05 8.8774728450558105e+04 1.8416009643765496e-14 6.9328976177225908e+04 1.1859113750121444e+05 2.4195315094264442e+03 -999 2.81643069e-01 3.305157047e-01 -1.16210619e-01
 75 6 1281933 1.1208582922755321e+05 8.5018985699605502e+04 1.8513087399354596e-14 6.4391098409317805e+04 1.1506644970817234e+05 2.2607189417158911e+03 -999 2.81779136e-01 3.279120707e-01 -1.16262842e-01
 76 6 1281933 9.8003790883341848e+04 7.9756699949590518e+04 1.8311490809977790e-14 5.8894271679476500e+04 1.0181645365385363e+05 2.0612165162058654e+03 -999 2.81882400e-01 3.257107845e-01 -1.16299590e-01
 77 6 1281933 8.1150612241920971e+04 7.4075279995429897e+04 1.8062802621541344e-14 5.2478598735415588e+04 8.4656279502254489e+04 1.8797803250438815e+03 -999 2.82008415e-01 3.230176756e-01 -1.16344482e-01
 78 6 1281933 6.7479489372915632e+04 6.8464880805524968e+04 1.7767195658576702e-14 4.5669514553821275e+04 6.9550100590310656e+04 1.7513926723983843e+03 -999 2.82159202e-01 3.197817390e-01 -1.16398677e-01
 79 6 1281933 6.0516718757510193e+04 6.4149634572228053e+04 1.7515169779910274e-14 4.0205508967632675e+04 6.1797044375849466e+04 1.6499859700032946e+03 -999 2.82306202e-01 3.165940955e-01 -1.16453314e-01
 80 6 1281933 5.5722428340672581e+04 6.0693576006101917e+04 1.7361954397504044e-14 3.6007073551608992e+04 5.6703301625633474e+04 1.5734922942262288e+03 -999 2.82438333e-01 3.136695910e-01 -1.16505861e-01
 81 6 1281933 4.8461155552402197e+04 5.7258847064200374e+04 1.7182561652701164e-14 3.2693442700606352e+04 4.9697884990965191e+04 1.4860532047428003e+03 -999 2.82524982e-01 3.110453699e-01 -1.16531691e-01
 82 6 1281933 3.9871687879690340e+04 5.3426376935965840e+04 1.6937555461923337e-14 2.8877564188362652e+04 4.0965194902257499e+04 1.4771080811691018e+03 -999 2.82627329e-01 3.077549774e-01 -1.16559751e-01
 83 6 1281933 3.2440992197141291e+04 4.9467825026970138e+04 1.6624626877897086e-14 2.4909803782034771e+04 3.3064763882553525e+04 1.6226879691393558e+03 -999 2.82744195e-01 3.036881422e-01 -1.16588343e-01
 84 6 1281933 2.8089495244520345e+04 4.6288645702101232e+04 1.6327664155105427e-14 2.1861749249782148e+04 2.8520679492159936e+04 1.9351253929379548e+03 -999 2.82849336e-01 2.995930637e-01 -1.16611244e-01
 85 6 1281933 2.5323256805430090e+04 4.3826119050642686e+04 1.6100987577106235e-14 1.9753305804758947e+04 2.5758188936017072e+04 2.3592176380783008e+03 -999 2.82936097e-01 2.957101780e-01 -1.16629416e-01
 86 6 1281933 2.2124212154863726e+04 4.1303355300156160e+04 1.5864610874204666e-14 1.7979022040881187e+04 2.2836230775943786e+04 2.8808783990121151e+03 -999 2.82969414e-01 2.915383292e-01 -1.16586860e-01
 87 6 1281933 1.8894322733496443e+04 3.8489556833347262e+04 1.5587925422026786e-14 1.6176825155883731e+04 1.9925626336752772e+04 3.6348785878771500e+03 -999 2.83026490e-01 2.860486849e-01 -1.16525269e-01
 88 6 1281933 1.6870023080776111e+04 3.5786690901780566e+04 1.5210734329455441e-14 1.4719590625174831e+04 1.8330975295151129e+04 6.8429596273923535e+03 -999 2.83141592e-01 2.791270969e-01 -1.16451064e-01
 89 6 1281933 1.6347295560566068e+04 3.3933217982004229e+04 1.4872358136474542e-14 1.3960981602714772e+04 1.8261107853341437e+04 1.2661610674995020e+04 -999 2.83319095e-01 2.720129914e-01 -1.16387928e-01
 90 6 1281933 1.6488209554550158e+04 3.2844149879922668e+04 1.4653738955470861e-14 1.3683520684207282e+04 1.8767655973442557e+04 2.1550317978546867e+04 -999 2.83577627e-01 2.649141545e-01 -1.16371509e-01
 91 6 1281933 1.5768926620634411e+04 3.0378531346053969e+04 1.4271450168806240e-14 1.2916119626972541e+04 1.8257011811908924e+04 5.8599388902840699e+04 -999 2.84096154e-01 2.549532983e-01 -1.16500865e-01
 92 6 1281933 1.6002169433935982e+04 2.8957678762997097e+04 1.3987034138187325e-14 1.2549878731579998e+04 1.8665156151247043e+04 1.4971371572906181e+05 -999 2.84981283e-01 2.404801103e-01 -1.16921373e-01
 93 6 1281933 1.6851892525111598e+04 3.2291117067835465e+04 1.4007416430141256e-14 1.2412614649057401e+04 2.0135931010485747e+04 2.2659182289769719e+05 -999 2.86179980e-01 2.222647661e-01 -1.17929542e-01
 94 6 1281933 1.7064009756324500e+04 3.7770138401947581e+04 1.3651278661171082e-14 1.2430272901343063e+04 2.3946008498424020e+04 2.8745076269982458e+05 -999 2.86568645e-01 2.144356351e-01 -1.18597265e-01
 95 6 1281933 1.7125338384323750e+04 3.7724473152354134e+04 1.3462779778596266e-14 1.2681761377892255e+04 2.7164941869836926e+04 3.1744214716607233e+05 -999 2.86720844e-01 2.097850476e-01 -1.19037183e-01
 96 6 1281933 1.6708557098322708e+04 2.2536406168694361e+04 4.2456024352643701e-14 1.1940274356083926e+04 1.8600166989767094e+04 3.7950855866093870e+05 -999 2.87671943e-01 1.862044441e-01 -1.21285549e-01
 97 6 1281933 1.6204879976309810e+04 2.0681316110293214e+04 1.0813452675978076e-13 1.1480869581970263e+04 1.7529820736695296e+04 4.0690703799212753e+05 -999 2.87362693e-01 1.649056190e-01 -1.23745385e-01
 98 6 1281933 1.5739051933354553e+04 3.1268564764175142e+04 2.0689296869772037e-13 1.1233838763913056e+04 1.7767644065349326e+04 4.0167947199415788e+05 -999 2.85097681e-01 1.463249775e-01 -1.25784198e-01
 99 6 1281933 1.5541675767338713e+04 3.8986015864266636e+04 2.2296286751387536e-13 1.0995596604675466e+04 1.7866883330337703e+04 2.4615021828102443e+05 -999 2.84459339e-01 1.441090463e-01 -1.25923101e-01
 100 6 1281933 1.5439644593003088e+04 4.3649994301160543e+04 2.3083115012805698e-13 1.0843796500842755e+04 1.7494856562042576e+04 3.1289004566801753e+05 -999 2.84073883e-01 1.429057199e-01 -1.25983872e-01
 101 6 1281933 1.3941873303920676e+04 2.3969526177673608e+04 3.5850746458144901e-13 9.2480693401670560e+03 1.4496480191887302e+04 3.4327748017252516e+05 -999 2.78497055e-01 1.270858540e-01 -1.26368466e-01
 102 6 1281933 1.2895012490307399e+04 2.1412738678307029e+04 4.1571892788439804e-13 8.0631821433651894e+03 1.3310494337259670e+04 1.3199281598651237e+05 -999 2.74587406e-01 1.186791953e-01 -1.25855341e-01
 103 6 1281933 1.2348172963204448e+04 1.9548460680491913e+04 4.5076631342323706e-13 7.3342581907672866e+03 1.2639590683702956e+04 6.9999211066596166e+04 -999 2.72770003e-01 1.142930450e-01 -1.25435403e-01
 104 6 1281933 1.2257263789628747e+04 1.8516675230597153e+04 4.9487791482257606e-13 6.8070134430931812e+03 1.2390823869654476e+04 3.3456894394963078e+04 -999 2.71712818e-01 1.109092341e-01 -1.25119104e-01
 105 6 1281933 1.1992929958130302e+04 1.9687515070124904e+04 5.2727355654241467e-13 6.5480543607048266e+03 1.2469291152739519e+04 1.8645410233688242e+04 -999 2.71353008e-01 1.089475907e-01 -1.24968564e-01
 106 6 1281933 1.0380997050063446e+04 1.5714086572043367e+04 6.7169914574907518e-13 5.6762733502046995e+03 1.0480818916026365e+04 1.6294851407500928e+04 -999 2.74249271e-01 1.035988671e-01 -1.25498527e-01
 107 6 1281933 8.9832828552916762e+03 1.2426736436539766e+04 1.2508875034419453e-12 5.2920078114905646e+03 8.7371852394066955e+03 2.6601445766600278e+04 -999 2.83954863e-01 9.578264341e-02 -1.28021955e-01
 108 6 1281933 8.9933611335511177e+03 1.3189827792581013e+04 1.5045163931670229e-12 5.3653670118730915e+03 8.6494374988570380e+03 4.5249900656076104e+04 -999 3.02089111e-01 8.955344960e-02 -1.33543251e-01
 109 6 1281933 8.9010521233770487e+03 1.3052141580668200e+04 1.4511013739390867e-12 5.1022968035965177e+03 8.6939567132425727e+03 3.4053155536429389e+04 -999 3.13158987e-01 8.751176275e-02 -1.37167325e-01
 110 6 1281933 8.4425775770487598e+03 1.2727065012566167e+04 1.3517013860513084e-12 4.7643206630039649e+03 8.4603325904149806e+03 4.6374824167319050e+04 -999 3.26859749e-01 8.542965619e-02 -1.41728780e-01
 111 6 1281933 6.0565036481640445e+03 8.7273413573075049e+03 2.4532129097451007e-12 3.7081999076423795e+03 5.7683378591760084e+03 4.8018126353666630e+04 -999 3.53693751e-01 8.241817783e-02 -1.50497839e-01
 112 6 1281933 4.9250291900719685e+03 6.2659956910868987e+03 3.3397171382765192e-12 2.9469141291291930e+03 4.7352386572076903e+03 6.6469437782035093e+04 -999 3.91508300e-01 7.863169147e-02 -1.62452666e-01
 113 6 1281933 4.3261369019131316e+03 5.3410551077974205e+03 2.7593985820578836e-12 2.3943979736688889e+03 4.1435499761290139e+03 1.3726038659522514e+05 -999 4.38671644e-01 7.437566346e-02 -1.76235655e-01
 114 6 1281933 3.9929497239802977e+03 4.8743455548896918e+03 2.3333703155743500e-12 1.9867163681587301e+03 3.7948308975079144e+03 8.2937562918066382e+04 -999 4.80622822e-01 7.094712151e-02 -1.86691010e-01
 115 6 1281933 3.8699583601995969e+03 4.5614691269813093e+03 2.3560946612224520e-12 1.5454404974440540e+03 3.7155842885112047e+03 5.0466843177303759e+04 -999 5.30623604e-01 6.728845313e-02 -1.96882101e-01
 116 6 1281933 3.0941494769934825e+03 3.6398060227092101e+03 4.7143272046846334e-12 1.0580202988345825e+03 2.9280215189824521e+03 2.4873591319622163e+04 -999 5.91605919e-01 6.555884784e-02 -2.03546802e-01
 117 6 1281933 2.7835169463317466e+03 3.2239977325100945e+03 5.4167445742558117e-12 8.4783510351388111e+02 2.6120746405061905e+03 1.6637668992639799e+04 -999 6.40082195e-01 6.468023532e-02 -2.06380194e-01
 118 6 1281933 2.6358656715755396e+03 3.0306203387714909e+03 5.4603777519008810e-12 7.6255449310867823e+02 2.4606388644074923e+03 1.0091639530401326e+04 -999 6.68880302e-01 6.437742250e-02 -2.06838158e-01
 119 6 1281933 2.5648956682670250e+03 2.9428479810483964e+03 5.7223680764583502e-12 7.2945783861938423e+02 2.3876403193519513e+03 7.1556639701904533e+03 -999 6.84200382e-01 6.428647864e-02 -2.06701575e-01
 120 6 1281933 2.5251660885752976e+03 2.8662744727619815e+03 5.7925655694805886e-12 6.9865246150971802e+02 2.3427748143207118e+03 6.1761939590897427e+03 -999 6.97002372e-01 6.423964782e-02 -2.06424655e-01
 121 6 1281933 2.3057571676251382e+03 2.8155511392996027e+03 5.1636067256817101e-12 7.2589396087571492e+02 2.1290096353011454e+03 6.1596656001387792e+03 -999 7.27164748e-01 6.479021554e-02 -2.06365810e-01
 122 6 1281933 2.2218879703848552e+03 2.8794602169892896e+03 5.3667129911097778e-12 8.5782705002714556e+02 2.0512143474863169e+03 5.7589044354794969e+03 -999 7.48696938e-01 6.501741598e-02 -2.06027485e-01
 123 6 1281933 2.1692680311166127e+03 2.9732814079534905e+03 5.7073121963973908e-12 1.0208332421721472e+03 1.9993890731029310e+03 6.2053877784648339e+03 -999 7.72056424e-01 6.530895081e-02 -2.05307341e-01
 124 6 1281933 2.1696355029766632e+03 3.0368344334905796e+03 5.9457292016451777e-12 1.1018747344734859e+03 1.9947221491512303e+03 6.1086496131809454e+03 -999 7.89207993e-01 6.545465918e-02 -2.04444033e-01
 125 6 1281933 2.1666954037436840e+03 3.0933188037349646e+03 6.0905837515540626e-12 1.1416317365803545e+03 1.9909266813629731e+03 5.6370126879474765e+03 -999 7.99451890e-01 6.550957800e-02 -2.03747591e-01
 126 6 1281933 2.0969868503171242e+03 2.9548751925380525e+03 5.4088052886496926e-12 1.0635379132758276e+03 1.9274675064408930e+03 5.2341660258396478e+03 -999 8.06662614e-01 6.558786217e-02 -2.03375384e-01
 127 6 1281933 2.0401795912625550e+03 2.7711571142726657e+03 4.7743455293755766e-12 9.8233304434009051e+02 1.8727717985546215e+03 5.5120392573926983e+03 -999 8.15334663e-01 6.567894882e-02 -2.02799931e-01
 128 6 1281933 1.9965418844989808e+03 2.5587438005934268e+03 4.2673916417650779e-12 8.9763350472788716e+02 1.8275686205979994e+03 5.7314404867103940e+03 -999 8.25605466e-01 6.578339812e-02 -2.01998472e-01
 129 6 1281933 1.9843970157154358e+03 2.3792916183458533e+03 3.9268575032332647e-12 8.1053857436711110e+02 1.8070650419378253e+03 6.0431853552974744e+03 -999 8.37094706e-01 6.589311831e-02 -2.00991832e-01
 130 6 1281933 1.9873158844775805e+03 2.3170672704258000e+03 3.8025313092030725e-12 7.7245901766428528e+02 1.8031328566423608e+03 5.2003359462851831e+03 -999 8.43457066e-01 6.594469520e-02 -2.00392721e-01
 131 6 1281933 1.9429495955238488e+03 2.2762782819537047e+03 3.3725144750672685e-12 7.5428260377639106e+02 1.7615848425002730e+03 5.1462691251327105e+03 -999 8.49252276e-01 6.600516968e-02 -1.99873056e-01
 132 6 1281933 1.9041113238297692e+03 2.2275559978363931e+03 2.9819760329406769e-12 7.4434341397875801e+02 1.7235832994670996e+03 5.5967059605262166e+03 -999 8.56691913e-01 6.606737028e-02 -1.99166999e-01
 133 6 1281933 1.8755183485291702e+03 2.1663996474505534e+03 2.7195694784546524e-12 7.2819039080574521e+02 1.6929620451071239e+03 6.1713505637523767e+03 -999 8.65627142e-01 6.611533164e-02 -1.98270279e-01
 134 6 1281933 1.8763721081698366e+03 2.1308580823658890e+03 2.6184588238976678e-12 7.0573147157904657e+02 1.6872333645113899e+03 6.1808544226055028e+03 -999 8.73594856e-01 6.613434406e-02 -1.97465182e-01
 135 6 1281933 1.8770478406992975e+03 2.1234523816233336e+03 2.5874228638683053e-12 6.9069027716495054e+02 1.6840135489876131e+03 5.9006665975319274e+03 -999 8.79800987e-01 6.612746196e-02 -1.96847058e-01
 136 6 1281933 1.8330630157096034e+03 2.1231661166488075e+03 2.3161187991469140e-12 6.8557789705559674e+02 1.6382848154094120e+03 5.7976272676325807e+03 -999 8.85030699e-01 6.613229186e-02 -1.96504423e-01
 137 6 1281933 1.8034468591666814e+03 2.1192733107139534e+03 2.0511938242960916e-12 7.1206982734831513e+02 1.6060811298638421e+03 6.5882397828968060e+03 -999 8.92265100e-01 6.611125191e-02 -1.95888287e-01
 138 6 1281933 1.7817707556063310e+03 2.1003101293427235e+03 1.9339376360475177e-12 7.2697889850178137e+02 1.5846458102766824e+03 7.0231615231293536e+03 -999 9.00312247e-01 6.604520470e-02 -1.95038558e-01
 139 6 1281933 1.7873024097324085e+03 2.0952855014294128e+03 1.9455051793729027e-12 7.2653804306215022e+02 1.5858513208727643e+03 7.2516524467919216e+03 -999 9.08180695e-01 6.592916242e-02 -1.94174936e-01
 140 6 1281933 1.8076710721576201e+03 2.0836240595903760e+03 2.0026830853513211e-12 7.2330760171275381e+02 1.5985930829804017e+03 6.7777666951620977e+03 -999 9.13948445e-01 6.581163939e-02 -1.93555083e-01