TITLE = "005.02 ALPHA 1.36 GRIDLEVEL 5"

VARIABLES = "ITERATION"  "GRID_LEVEL"  "GRID_SIZE"  "CONTINUITY"  "MOMENTUMX"  "MOMENTUMY"  "MOMENTUMZ"  "ENERGY"  "TURB1"  "TURB2"  "CL_TOT"  "CD_TOT"  "CM_TOT"

DATASETAUXDATA ParticipantID   = "005"
DATASETAUXDATA SubmissionDate  = "10-31-2024"
DATASETAUXDATA Name            = "Jeffrey A. Housman"
DATASETAUXDATA Email           = "jeffrey.a.housman@nasa.gov"
DATASETAUXDATA Institution     = "NASA Ames Research Center"
DATASETAUXDATA SolverName      = "LAVA Curvilinear"
DATASETAUXDATA BasicAlgorithm  = "RANS"
DATASETAUXDATA TurbulenceModel = "SA-RC-comp-neg"
DATASETAUXDATA GridId          = "Multiblock"
DATASETAUXDATA Discretization  = "Finite difference"
DATASETAUXDATA Order           = "2"
DATASETAUXDATA DistanceCalc    = "Exact"
DATASETAUXDATA Notes           = " "

ZONE T = "005.02 - Alpha 1.36 - Grid Level 5"
AUXDATA Tstatic         = "271.0"
AUXDATA Deltat          = "-999"
AUXDATA GridFileName    = "ONERA-OAT15A_230mmChord_780mmSpan_upZ_2024_06_25-Structured_23mm_Level-5.x"
AUXDATA Misc            = " "
 0 5 752103 4.6646526083282480e+05 1.5479482706154983e+06 7.6801866300973486e-14 4.2602475679174560e+05 4.8355161100802518e+05 2.8650433989261948e+06 -999 7.29484505e-03 9.090839606e-01 -6.19455995e-04
 1 5 752103 7.0740913905831636e+05 1.1519107181217093e+06 6.5385646568430968e-14 3.3137512126989634e+05 6.8289516831233504e+05 1.8564925798974871e+06 -999 2.30395969e-02 8.294410343e-01 -1.07244614e-02
 2 5 752103 8.8083385410746711e+05 9.7732577418174269e+05 5.6998256038242218e-14 3.6985308072618168e+05 8.4122992591111851e+05 1.2076111055099065e+06 -999 4.04626184e-02 7.813984367e-01 -2.25059850e-02
 3 5 752103 1.0318023681550812e+06 8.7525730591985583e+05 5.0620106116249512e-14 4.5255225862903538e+05 9.8724137890727550e+05 7.8974466984117264e+05 -999 5.66645338e-02 7.499442667e-01 -3.27257371e-02
 4 5 752103 1.1622920135761916e+06 8.0205538156450144e+05 4.5661986367729398e-14 5.4829807615337195e+05 1.1248339311800145e+06 5.0907519950548152e+05 -999 7.21110487e-02 7.282121273e-01 -4.17252498e-02
 5 5 752103 1.2975425988230733e+06 8.0583451893612579e+05 4.1779713478486574e-14 6.4873166621802154e+05 1.2867484616661072e+06 3.2725150130220427e+05 -999 8.28525459e-02 7.110720615e-01 -4.83656881e-02
 6 5 752103 1.1827606739051212e+06 8.3714117212088802e+05 3.8849539559870646e-14 6.8448239571605425e+05 1.1747206500366658e+06 1.7338936770184987e+05 -999 8.99994492e-02 6.894304080e-01 -5.35911436e-02
 7 5 752103 1.2157340794395278e+06 8.4765164478844078e+05 3.6240989017282968e-14 7.1641445111893956e+05 1.2045737033531221e+06 1.2140297726442528e+05 -999 9.63445737e-02 6.661254326e-01 -5.82926646e-02
 8 5 752103 1.2809427891222334e+06 8.3073311044843378e+05 3.4323440661252845e-14 7.3719933585772163e+05 1.2903978615936821e+06 9.9849472081145868e+04 -999 1.01758232e-01 6.431467589e-01 -6.17255313e-02
 9 5 752103 1.5565264961045426e+06 9.1042131148466223e+05 3.2727763021281014e-14 8.1778351209541492e+05 1.6285890511813192e+06 8.8193172078374686e+04 -999 1.07440559e-01 6.175136215e-01 -6.47894338e-02
 10 5 752103 1.4520595625302156e+06 7.5519619517815183e+05 3.1818823091107484e-14 7.8597584773170738e+05 1.4978037798344686e+06 7.9148898309085969e+04 -999 1.10483631e-01 6.022600309e-01 -6.63770419e-02
 11 5 752103 1.3749252358951296e+06 7.7963013965900615e+05 3.0766283020100900e-14 7.7867405047092948e+05 1.4074313001131513e+06 7.1396229298872131e+04 -999 1.13470554e-01 5.853735823e-01 -6.80535149e-02
 12 5 752103 1.2746732726976213e+06 7.6100989831751422e+05 2.9743505476736730e-14 7.5041368876075302e+05 1.2914978746333215e+06 6.5619526707187135e+04 -999 1.15872258e-01 5.695780475e-01 -6.94670570e-02
 13 5 752103 1.4295425431802806e+06 8.1031116562307603e+05 2.8793207868921590e-14 7.8962323322821199e+05 1.4796790025871533e+06 6.1235765114346803e+04 -999 1.18042877e-01 5.530042480e-01 -7.08577826e-02
 14 5 752103 1.3421685668894115e+06 6.9129407175299001e+05 2.8222253119458576e-14 7.5217668882194662e+05 1.3710144283141894e+06 5.7360370543670266e+04 -999 1.19241391e-01 5.427583632e-01 -7.16959683e-02
 15 5 752103 1.5495410993347373e+06 8.3936573820006894e+05 2.7779984808943451e-14 7.9125107281934679e+05 1.6469695299736839e+06 5.4086713682275840e+04 -999 1.20413731e-01 5.323374283e-01 -7.25663159e-02
 16 5 752103 1.2967725362105765e+06 7.2937246195842454e+05 2.7239662161930520e-14 7.2065363618147490e+05 1.3630247304670755e+06 4.9707200108774072e+04 -999 1.21334860e-01 5.233540710e-01 -7.32436809e-02
 17 5 752103 1.1978115812536483e+06 6.7920486082554713e+05 2.6674349074401679e-14 6.9624734742604173e+05 1.2175944609528889e+06 4.6259208920854966e+04 -999 1.22294743e-01 5.132667385e-01 -7.39135436e-02
 18 5 752103 1.1724519162538317e+06 6.3864861873060756e+05 2.6269942506208120e-14 6.7823569361232512e+05 1.1837757931666148e+06 4.3497030059878321e+04 -999 1.23047949e-01 5.044832170e-01 -7.43928875e-02
 19 5 752103 1.3085211532932448e+06 6.8549929525543284e+05 2.5967086493696963e-14 6.8447152196051436e+05 1.3720499850146745e+06 4.1152981571432538e+04 -999 1.23663970e-01 4.965337751e-01 -7.47505941e-02
 20 5 752103 1.2920386421652399e+06 6.2558894612629618e+05 2.5748126248335464e-14 6.8788897011052701e+05 1.3399587634302923e+06 3.9047513041663442e+04 -999 1.24104156e-01 4.902075843e-01 -7.49946035e-02
 21 5 752103 1.1753742773556781e+06 6.5093531804274675e+05 2.5376132266201476e-14 6.4919566429439432e+05 1.2258269718019774e+06 3.6115932004166811e+04 -999 1.24453047e-01 4.840601554e-01 -7.51893317e-02
 22 5 752103 1.0446805248257753e+06 5.7646940451617667e+05 2.4947032217180095e-14 6.0413570108293777e+05 1.0682305055394736e+06 3.3849562485423703e+04 -999 1.24830798e-01 4.767260730e-01 -7.54039131e-02
 23 5 752103 1.0517492262129870e+06 5.9468066352213919e+05 2.4554170819051774e-14 5.9287399370268453e+05 1.0761278015656748e+06 3.1989570663549184e+04 -999 1.25157293e-01 4.696965832e-01 -7.55973690e-02
 24 5 752103 1.1947774484574548e+06 6.2855026609256712e+05 2.4272104669264932e-14 6.1265488674081548e+05 1.2546252496490742e+06 3.0456935189389231e+04 -999 1.25444297e-01 4.629373269e-01 -7.57776252e-02
 25 5 752103 1.1339217878808221e+06 5.3841348655274801e+05 2.4038134133224208e-14 5.8742763523085718e+05 1.1869181917524149e+06 2.8942500480633018e+04 -999 1.25613999e-01 4.585720440e-01 -7.58908512e-02
 26 5 752103 1.0153896828641845e+06 5.3107680415080360e+05 2.3640035018881405e-14 5.5652830017789733e+05 1.0599664296899897e+06 2.6905085421113065e+04 -999 1.25773893e-01 4.536400800e-01 -7.60031408e-02
 27 5 752103 9.0498034692697052e+05 5.0969295787761087e+05 2.3189520022995675e-14 5.1961133115449647e+05 9.2835183544265013e+05 2.5308312046395291e+04 -999 1.25950771e-01 4.480187245e-01 -7.61300970e-02
 28 5 752103 9.1286967869350943e+05 5.0957217471690098e+05 2.2800945397992111e-14 5.0665592988662072e+05 9.3422067823043908e+05 2.4010300376599385e+04 -999 1.26123901e-01 4.424406069e-01 -7.62547071e-02
 29 5 752103 1.0386129380435713e+06 5.4574774634480337e+05 2.2541580222506350e-14 5.1995327633180760e+05 1.0911512110306085e+06 2.2922939752203318e+04 -999 1.26286465e-01 4.371508167e-01 -7.63697195e-02
 30 5 752103 1.0016531663888949e+06 4.7156620087630220e+05 2.2425020330712380e-14 5.0559506593194359e+05 1.0487904079418585e+06 2.1838893510434849e+04 -999 1.26393082e-01 4.336373437e-01 -7.64438772e-02
 31 5 752103 8.8758916511837929e+05 4.7251872895528213e+05 2.2190054959154733e-14 4.7383034707936289e+05 9.3264174227222684e+05 2.0346976818016585e+04 -999 1.26496758e-01 4.296564970e-01 -7.65172930e-02
 32 5 752103 7.7350699708379270e+05 4.3558591978240362e+05 2.1953106493238417e-14 4.3747497114462778e+05 7.9679814743060281e+05 1.9193672872652522e+04 -999 1.26616105e-01 4.250774220e-01 -7.66018808e-02
 33 5 752103 7.6845094865223730e+05 4.2760976812320354e+05 2.1802272906263840e-14 4.2184040434500389e+05 7.8231688416015042e+05 1.8243578631147833e+04 -999 1.26736827e-01 4.204301822e-01 -7.66876478e-02
 34 5 752103 8.4631824214899761e+05 4.4931198545702011e+05 2.1772817851634183e-14 4.2219971656859684e+05 8.8769667088636290e+05 1.7406438766834497e+04 -999 1.26836667e-01 4.165715913e-01 -7.67588061e-02
 35 5 752103 9.7050068929512356e+05 5.5135139253081987e+05 2.1801062621518596e-14 4.4297432155003044e+05 1.0460659993556549e+06 1.6676099077187377e+04 -999 1.26930608e-01 4.129332529e-01 -7.68258787e-02
 36 5 752103 8.0392554355103301e+05 4.7083344585871842e+05 2.1618298960754047e-14 4.0046311386216059e+05 8.6976237764839199e+05 1.5548808524766999e+04 -999 1.27000379e-01 4.098163719e-01 -7.68769157e-02
 37 5 752103 6.6195350720055448e+05 3.8643925327038340e+05 2.1403855440421453e-14 3.6365297605073673e+05 6.9246083790635259e+05 1.4682365650524613e+04 -999 1.27085694e-01 4.060682407e-01 -7.69392030e-02
 38 5 752103 6.3290324984722619e+05 3.6411919039462216e+05 2.1215725902841874e-14 3.4419773455824133e+05 6.4305907791322214e+05 1.3960705271374261e+04 -999 1.27174490e-01 4.022405216e-01 -7.70038521e-02
 39 5 752103 7.0195498842811468e+05 3.7815934352440672e+05 2.1116708087340958e-14 3.4305940250205062e+05 7.3103473116527870e+05 1.3332325514904398e+04 -999 1.27254869e-01 3.988351445e-01 -7.70621488e-02
 40 5 752103 7.6941433272480883e+05 3.9903819836347119e+05 2.1083302102450658e-14 3.5050169833162444e+05 8.1445819874613441e+05 1.2761742716436047e+04 -999 1.27324980e-01 3.959101302e-01 -7.71127037e-02
 41 5 752103 6.5116912128667429e+05 3.6522053380790434e+05 2.0852892254562692e-14 3.2028118275787274e+05 6.9905215496432141e+05 1.1866865317643271e+04 -999 1.27383679e-01 3.931555924e-01 -7.71558566e-02
 42 5 752103 5.3429890184997895e+05 3.1559445780303254e+05 2.0566826999121320e-14 2.8955610587899439e+05 5.6155963268186967e+05 1.1157217144996161e+04 -999 1.27453655e-01 3.899427045e-01 -7.72073067e-02
 43 5 752103 4.9885240766385291e+05 2.8769643465884961e+05 2.0279941075328603e-14 2.6909927747720166e+05 5.0485128895286820e+05 1.0551755855530017e+04 -999 1.27533056e-01 3.863817735e-01 -7.72655749e-02
 44 5 752103 5.4459333168038947e+05 2.9414866149124067e+05 2.0098041928054087e-14 2.6471054588819476e+05 5.6267780799943255e+05 1.0025861692773808e+04 -999 1.27603589e-01 3.832965486e-01 -7.73170552e-02
 45 5 752103 5.9983519048315927e+05 3.3056939930395066e+05 1.9987760313392471e-14 2.6683164247161977e+05 6.3988546872916899e+05 9.5518617828462193e+03 -999 1.27662761e-01 3.807654500e-01 -7.73598375e-02
 46 5 752103 5.0625307712218235e+05 2.7996290048723522e+05 1.9747269349602492e-14 2.4391582162806430e+05 5.4504036834092753e+05 8.8722413202262233e+03 -999 1.27715717e-01 3.782352211e-01 -7.73991016e-02
 47 5 752103 4.1428063913985202e+05 2.4629915718135334e+05 1.9463122680928978e-14 2.2087248150187559e+05 4.3834616923101171e+05 8.3072040365465655e+03 -999 1.27777286e-01 3.753568390e-01 -7.74448159e-02
 48 5 752103 3.7703531626498105e+05 2.2441470276655577e+05 1.9194179065485240e-14 2.0340993281624134e+05 3.8334860280717636e+05 7.8142521014491231e+03 -999 1.27846338e-01 3.722086928e-01 -7.74959356e-02
 49 5 752103 4.0246199462418008e+05 2.2389999234036103e+05 1.9025504024421720e-14 1.9702255856106518e+05 4.1243796153646754e+05 7.3865678206782586e+03 -999 1.27911506e-01 3.693236660e-01 -7.75437050e-02
 50 5 752103 4.4028418215212587e+05 2.3922418072481948e+05 1.8956876137395591e-14 1.9666259551913737e+05 4.6267596352469025e+05 7.0072880314683543e+03 -999 1.27969496e-01 3.668326885e-01 -7.75855202e-02
 51 5 752103 3.7679491699793184e+05 2.1111413822830556e+05 1.8748151857398719e-14 1.7997302639999337e+05 4.0300096700346959e+05 6.4804967490350946e+03 -999 1.28018333e-01 3.645519156e-01 -7.76213852e-02
 52 5 752103 3.0620038879331166e+05 1.8522148789709833e+05 1.8484130075668871e-14 1.6146829252940920e+05 3.2603446226932295e+05 6.0274153761732723e+03 -999 1.28077924e-01 3.618104922e-01 -7.76654660e-02
 53 5 752103 2.7014845962705661e+05 1.6692478314161318e+05 1.8207135176874215e-14 1.4592001402180395e+05 2.7756463273732032e+05 5.6136558526979152e+03 -999 1.28145787e-01 3.587606146e-01 -7.77155859e-02
 54 5 752103 2.7839539452736272e+05 1.6323115572898544e+05 1.8012180076720654e-14 1.3796191613191678e+05 2.8498932015751221e+05 5.2603311477069419e+03 -999 1.28211640e-01 3.558964144e-01 -7.77635605e-02
 55 5 752103 2.9739075072732649e+05 1.7050906829424424e+05 1.7914823934810253e-14 1.3455210028594697e+05 3.1118153423997463e+05 4.9464851970091886e+03 -999 1.28272306e-01 3.533539631e-01 -7.78067725e-02
 56 5 752103 2.5586047750089492e+05 1.5234674636699402e+05 1.7725882661843616e-14 1.2360495448376461e+05 2.7270452561668289e+05 4.5294660445858508e+03 -999 1.28319993e-01 3.511129192e-01 -7.78433032e-02
 57 5 752103 2.0855939455746781e+05 1.3518875948628341e+05 1.7494108641833305e-14 1.1108199963818125e+05 2.2310446164487093e+05 4.1595435417847557e+03 -999 1.28378041e-01 3.484229671e-01 -7.78881375e-02
 58 5 752103 1.7953227283426819e+05 1.2169676007839492e+05 1.7239791222811116e-14 9.9456187446640281e+04 1.8719081099426394e+05 3.8352787739382547e+03 -999 1.28446447e-01 3.453444981e-01 -7.79405206e-02
 59 5 752103 1.7727049668464696e+05 1.1638842335767536e+05 1.7064566161655314e-14 9.2179820852395511e+04 1.8276668845309594e+05 3.5608209293134246e+03 -999 1.28515447e-01 3.423793221e-01 -7.79919495e-02
 60 5 752103 1.8116969331783109e+05 1.1552529986672958e+05 1.6983442650993205e-14 8.7738596769695403e+04 1.8867970150004496e+05 3.3205597140193445e+03 -999 1.28580212e-01 3.397381898e-01 -7.80385765e-02
 61 5 752103 1.5688480842500625e+05 1.0625121640382738e+05 1.6801059371097812e-14 8.1187190232297376e+04 1.6617792831418518e+05 3.0066800410482929e+03 -999 1.28628351e-01 3.374645133e-01 -7.80777450e-02
 62 5 752103 1.2850930435285810e+05 9.6964938153356969e+04 1.6562057353321314e-14 7.3557639528352214e+04 1.3711683247088708e+05 2.7348582573278768e+03 -999 1.28687132e-01 3.347294357e-01 -7.81256864e-02
 63 5 752103 1.0788501002127603e+05 8.8646134218996594e+04 1.6294540817972557e-14 6.5866868464890562e+04 1.1322140353751025e+05 2.4979829342113972e+03 -999 1.28758982e-01 3.315091926e-01 -7.81828975e-02
 64 5 752103 1.0123547000345924e+05 8.3536377010089622e+04 1.6071462870143934e-14 6.0278795430439342e+04 1.0490192466922190e+05 2.2989643975198842e+03 -999 1.28833681e-01 3.283560836e-01 -7.82395992e-02
 65 5 752103 9.8215084309859260e+04 8.0186837262252404e+04 1.5926771776939868e-14 5.6255394498411231e+04 1.0179636273512272e+05 2.1301661094376859e+03 -999 1.28905817e-01 3.254976761e-01 -7.82917789e-02
 66 5 752103 8.5754015864285364e+04 7.5505290700273457e+04 1.5735004402933920e-14 5.1929150162899867e+04 9.0012282949985747e+04 1.9080897189060793e+03 -999 1.28953423e-01 3.230941282e-01 -7.83323306e-02
 67 5 752103 7.0859123053479459e+04 7.0434998923646432e+04 1.5491578873307811e-14 4.6812938350258213e+04 7.4748307633990116e+04 1.7222821118933816e+03 -999 1.29011660e-01 3.201591005e-01 -7.83816730e-02
 68 5 752103 5.8478729181992530e+04 6.5307159226383308e+04 1.5191878934792602e-14 4.1281500179067232e+04 6.0882814182367678e+04 1.5674306225470107e+03 -999 1.29083821e-01 3.166279888e-01 -7.84401916e-02
 69 5 752103 5.2103034467632606e+04 6.1282201499212810e+04 1.4925308481560024e-14 3.6739180353681637e+04 5.3553477974658206e+04 1.4426427138439362e+03 -999 1.29159435e-01 3.131213764e-01 -7.84970960e-02
 70 5 752103 4.7836985889918455e+04 5.8100661899364706e+04 1.4718260885052335e-14 3.3211737871614045e+04 4.8867631628937248e+04 1.3412442903619242e+03 -999 1.29232382e-01 3.099077502e-01 -7.85485135e-02
 71 5 752103 4.1911078059657710e+04 5.5062089331784358e+04 1.4503434053715939e-14 3.0257949791983025e+04 4.3059244875420321e+04 1.2151491372052676e+03 -999 1.29269334e-01 3.070348656e-01 -7.85789975e-02
 72 5 752103 3.4966762888711768e+04 5.1616679503198189e+04 1.4230933306140735e-14 2.6853938563811615e+04 3.5910187984772056e+04 1.1422790938011601e+03 -999 1.29312542e-01 3.034457807e-01 -7.86124772e-02
 73 5 752103 2.8815222039077980e+04 4.7943217481206542e+04 1.3885965122223832e-14 2.3257310709159941e+04 2.9322944674576302e+04 1.1067680078474521e+03 -999 1.29364678e-01 2.990327040e-01 -7.86459340e-02
 74 5 752103 2.4989878903551074e+04 4.4850993517694573e+04 1.3563468318180383e-14 2.0362115053121222e+04 2.5335874018436589e+04 1.1147792995841221e+03 -999 1.29418852e-01 2.945860720e-01 -7.86704829e-02
 75 5 752103 2.2468307167528987e+04 4.2365549447946854e+04 1.3290641091597487e-14 1.8270110486441492e+04 2.2857496309106151e+04 1.1649512809270623e+03 -999 1.29472753e-01 2.903803166e-01 -7.86863798e-02
 76 5 752103 1.9816177449573002e+04 3.9955671594485771e+04 1.3022709586674810e-14 1.6542474541340813e+04 2.0474478540894677e+04 1.2860379972933388e+03 -999 1.29511603e-01 2.858579034e-01 -7.86571599e-02
 77 5 752103 1.7206640840316402e+04 3.7235568315170356e+04 1.2692651493389319e-14 1.4839655022331901e+04 1.8196803039820581e+04 1.6458079817982771e+03 -999 1.29597304e-01 2.798904653e-01 -7.86164657e-02
 78 5 752103 1.5639886509715894e+04 3.4506892660106481e+04 1.2319986660603642e-14 1.3604753417860058e+04 1.7047765237625499e+04 2.4044453191563516e+03 -999 1.29785105e-01 2.723419383e-01 -7.85740728e-02
 79 5 752103 1.5355787371526485e+04 3.2410498030128481e+04 1.1971511163956208e-14 1.3060162417964853e+04 1.7169075598683627e+04 4.4639460965895678e+03 -999 1.30105107e-01 2.645492883e-01 -7.85632506e-02
 80 5 752103 1.5607706886917680e+04 3.0888376284215741e+04 1.1706284468156304e-14 1.2845889372764428e+04 1.7753425708816896e+04 6.0239025837749696e+03 -999 1.30569946e-01 2.567763637e-01 -7.86111786e-02
 81 5 752103 1.5122608182529068e+04 2.8449072665975888e+04 1.1343438640670099e-14 1.1821964418021229e+04 1.7516354052708666e+04 1.8325310739964683e+04 -999 1.31699070e-01 2.457302617e-01 -7.89081925e-02
 82 5 752103 1.5283740609382601e+04 2.6442831912719015e+04 1.1096814764035917e-14 1.1176827561206263e+04 1.7787089204436390e+04 4.7571227123403936e+04 -999 1.33745214e-01 2.297991204e-01 -7.96871109e-02
 83 5 752103 1.5980007525134031e+04 2.6372389261616107e+04 1.1052116217408666e-14 1.1103608869538088e+04 1.8417719741752779e+04 8.7816329770799115e+04 -999 1.36516644e-01 2.114187702e-01 -8.12455834e-02
 84 5 752103 1.6686635059091554e+04 2.8790761593678078e+04 1.0941757449784287e-14 1.1140857641294380e+04 1.9732209235801412e+04 1.9230853232402491e+05 -999 1.39522688e-01 1.923542507e-01 -8.37012691e-02
 85 5 752103 1.6873714052519259e+04 3.3335490606639134e+04 1.0529675300269403e-14 1.1419135300450878e+04 2.5195855789570280e+04 2.3258666661009015e+05 -999 1.40919546e-01 1.821902968e-01 -8.54720110e-02
 86 5 752103 1.4833856121498813e+04 2.0630519407427048e+04 1.2882408041162863e-14 1.0001013135552730e+04 1.6116626837765696e+04 4.0462350769414438e+05 -999 1.44734621e-01 1.522812131e-01 -9.17894910e-02
 87 5 752103 1.3212842597685010e+04 2.2631347627938438e+04 2.3053651720112368e-14 8.8550789864756098e+03 1.4191715643537134e+04 4.7596280529044679e+05 -999 1.45924227e-01 1.289523974e-01 -9.82906672e-02
 88 5 752103 1.2807570789044559e+04 3.4394926765039170e+04 2.8507276859638883e-14 8.3838203184256563e+03 1.5108427835882376e+04 3.8515310458784970e+05 -999 1.45812588e-01 1.253822788e-01 -9.93654241e-02
 89 5 752103 1.2626353528531943e+04 3.6127527551722305e+04 3.1176908171150158e-14 8.1687253334295101e+03 1.5235331803394545e+04 1.9751388436232676e+05 -999 1.45772621e-01 1.240198176e-01 -9.97669632e-02
 90 5 752103 1.2484816278746301e+04 3.7006011145514087e+04 3.3609836400505912e-14 7.9539753863589222e+03 1.5353664533948038e+04 8.5229417809091072e+04 -999 1.45740121e-01 1.229564303e-01 -1.00079903e-01
 91 5 752103 1.0636867904333809e+04 1.9444731024283392e+04 2.0924571440815027e-14 5.9997125993204509e+03 1.1067155713560405e+04 2.6677692348883051e+05 -999 1.44665774e-01 1.110311920e-01 -1.03053912e-01
 92 5 752103 9.4348617031778867e+03 1.5666646993269671e+04 1.4622898437267459e-14 4.9317187549080609e+03 9.5176322716455379e+03 1.2235212402273630e+05 -999 1.45063624e-01 1.031962970e-01 -1.05442004e-01
 93 5 752103 8.8099430458147672e+03 1.3680047761187567e+04 1.1577846057433609e-14 4.4191580627752201e+03 8.7425878067013418e+03 4.9150420530696931e+04 -999 1.46910558e-01 9.804363629e-02 -1.07655962e-01
 94 5 752103 8.5985366050744578e+03 1.2648607871561886e+04 1.0232914545270118e-14 4.2379385505156033e+03 8.6548689577160494e+03 2.1978199384310923e+04 -999 1.48710882e-01 9.529195427e-02 -1.09179937e-01
 95 5 752103 8.4827153938665360e+03 1.2072983530161897e+04 9.5425653202316238e-15 4.1735103625226293e+03 8.8857207047382381e+03 1.7455860500917661e+04 -999 1.50227366e-01 9.355655211e-02 -1.10296294e-01
 96 5 752103 6.2495857613056269e+03 9.1799806412467151e+03 1.9097819402040666e-12 3.6310341054781343e+03 6.4474920097418462e+03 7.3990914913285407e+04 -999 1.75278150e-01 8.127694639e-02 -1.25081616e-01
 97 5 752103 5.7954580083401734e+03 7.9708203992346953e+03 1.8661678297207677e-12 3.2826457129939377e+03 6.3782287401323165e+03 1.3352353582508035e+05 -999 2.09684485e-01 7.264764974e-02 -1.42048271e-01
 98 5 752103 5.6139191872024685e+03 6.5368438841047691e+03 1.3489336742011815e-12 2.8783379512173069e+03 6.6819247352450029e+03 1.7412105172639023e+05 -999 2.48262560e-01 6.564609783e-02 -1.58399677e-01
 99 5 752103 5.2480154313548801e+03 7.0985682890885637e+03 6.4736167058269522e-13 3.0862573389517411e+03 6.9690957498632879e+03 1.4795293359620508e+05 -999 2.83057902e-01 5.984308402e-02 -1.70348112e-01
 100 5 752103 4.3169872878816032e+03 6.2700954542708814e+03 4.4535939354031323e-13 2.8999541271470098e+03 6.4884414746144976e+03 9.7568878893432862e+04 -999 2.98581986e-01 5.724670617e-02 -1.74303699e-01
 101 5 752103 3.4610990920530062e+03 5.5894185076280410e+03 3.3135271190806776e-12 2.4029827330979383e+03 4.9057973848084375e+03 4.2638382068604973e+04 -999 3.16274245e-01 5.442523535e-02 -1.78121078e-01
 102 5 752103 3.0012539615965452e+03 5.2347874010167843e+03 5.7358228260853499e-12 2.6459559414766550e+03 3.4695331899823232e+03 7.4017358111394016e+04 -999 3.42406598e-01 5.063448788e-02 -1.82938784e-01
 103 5 752103 2.8706532194793608e+03 4.7673718282638956e+03 6.2119363435589225e-12 2.8020945774146257e+03 3.0239312833146914e+03 6.8537435719153669e+04 -999 3.72565055e-01 4.687717246e-02 -1.87250858e-01
 104 5 752103 3.0034906511045028e+03 4.3835272872926935e+03 4.8848860807029870e-12 2.7311200504100711e+03 3.0548416017499571e+03 5.3748430159808791e+04 -999 4.00475238e-01 4.390720969e-02 -1.89883894e-01
 105 5 752103 3.1801445740854660e+03 4.2141309152273670e+03 3.8832497035318058e-12 2.5169452479752445e+03 3.2437722901440766e+03 2.5330387762735332e+04 -999 4.17783366e-01 4.240934101e-02 -1.90811025e-01
 106 5 752103 3.4239300879042485e+03 3.1754416177443845e+03 2.6306901773269710e-12 1.2567073997421451e+03 3.4406820219096412e+03 2.9565849383038025e+04 -999 4.37219898e-01 4.102428303e-02 -1.92323297e-01
 107 5 752103 3.7665705874274727e+03 2.9674144526949203e+03 2.4420304982806176e-12 1.1752674716246377e+03 3.7956568793118990e+03 2.0745485088532212e+04 -999 4.55349303e-01 4.013974974e-02 -1.93264096e-01
 108 5 752103 3.9144733295854599e+03 2.8900027290827707e+03 2.3309106599362108e-12 1.0684313301131263e+03 3.9710288429442153e+03 1.3987365491234152e+04 -999 4.66864719e-01 3.962298088e-02 -1.93466255e-01
 109 5 752103 3.9811908989217309e+03 2.8242938101538093e+03 2.3351077232260110e-12 9.7516419290257284e+02 4.0495519284780512e+03 1.1776300530278282e+04 -999 4.75008487e-01 3.925850550e-02 -1.93387210e-01
 110 5 752103 4.0789681310585656e+03 2.7786738706227457e+03 2.3987451830445024e-12 8.8067657958205928e+02 4.1604721603414137e+03 1.1346353067870548e+04 -999 4.83752779e-01 3.887558726e-02 -1.93136792e-01
 111 5 752103 3.7874095856222502e+03 2.6043553516980519e+03 1.7148814367384018e-12 7.1211400339474983e+02 3.8213991100073131e+03 1.1355565397522974e+04 -999 4.94703879e-01 3.843553724e-02 -1.92548389e-01
 112 5 752103 3.6837411266948561e+03 2.5069784755519499e+03 1.7241819498754531e-12 6.5569631722572842e+02 3.6910132558682226e+03 1.1177543412525816e+04 -999 5.06421553e-01 3.802403056e-02 -1.91673883e-01
 113 5 752103 3.7377295052293753e+03 2.4809806737641820e+03 1.8733758121877973e-12 6.2654381881850679e+02 3.7563774909538029e+03 1.0959744139388320e+04 -999 5.18558119e-01 3.766269922e-02 -1.90507702e-01
 114 5 752103 3.7261926495264242e+03 2.4416121063180885e+03 1.9059370641980517e-12 6.0127005593072613e+02 3.7504817758089503e+03 9.7266943438048274e+03 -999 5.25270052e-01 3.750682868e-02 -1.89720113e-01
 115 5 752103 3.7193360337464696e+03 2.4118767028644647e+03 1.9169585275755164e-12 5.8695143821712668e+02 3.7484181208534274e+03 9.1663665387433866e+03 -999 5.31752596e-01 3.738410611e-02 -1.88884845e-01
 116 5 752103 3.5431294320494690e+03 2.3178277226795153e+03 1.4228964638246723e-12 5.5633180678304791e+02 3.5433085705912913e+03 8.8062888884937784e+03 -999 5.38065716e-01 3.731407456e-02 -1.87953529e-01
 117 5 752103 3.3969802869860027e+03 2.2326337316810182e+03 1.2167820023993514e-12 5.3728744473911001e+02 3.3702441337631658e+03 8.6949688045974290e+03 -999 5.45434769e-01 3.726312381e-02 -1.86783085e-01
 118 5 752103 3.3002577426754342e+03 2.1667438415221618e+03 1.1906628294368451e-12 5.1139318150870417e+02 3.2593563325309187e+03 8.5634093880927576e+03 -999 5.53378042e-01 3.724147494e-02 -1.85446788e-01
 119 5 752103 3.2383609517476821e+03 2.1295175848128524e+03 1.1865191705197388e-12 4.8800775928256502e+02 3.1936930348119026e+03 8.0908041557661327e+03 -999 5.59726448e-01 3.724606380e-02 -1.84323307e-01
 120 5 752103 3.1923574676923558e+03 2.0858124128096397e+03 1.1686942905858785e-12 4.6875722644709322e+02 3.1446716200165147e+03 7.5629165734580793e+03 -999 5.64434479e-01 3.726266318e-02 -1.83449248e-01
 121 5 752103 3.0842219719255745e+03 2.0228284819871001e+03 8.7665593867162096e-13 4.4416241939226433e+02 3.0315525708018504e+03 7.7375781266763161e+03 -999 5.69875953e-01 3.730322234e-02 -1.82424237e-01
 122 5 752103 2.9888578070943336e+03 1.9640724087265285e+03 8.2930618300031422e-13 4.2330724964281421e+02 2.9292310878454291e+03 8.0380917377077531e+03 -999 5.76321534e-01 3.737560007e-02 -1.81188207e-01
 123 5 752103 2.9163126853016151e+03 1.9164489105950017e+03 8.9201936932682257e-13 4.0874882395768992e+02 2.8506047741970065e+03 8.2071898462091322e+03 -999 5.82933292e-01 3.746079626e-02 -1.79889633e-01
 124 5 752103 2.8724508923731037e+03 1.8880171202283973e+03 9.3561930388780927e-13 4.0144834271498763e+02 2.8032198176721508e+03 7.9825748098365311e+03 -999 5.88509434e-01 3.753360185e-02 -1.78784369e-01
 125 5 752103 2.8493850686470596e+03 1.8918808080187850e+03 9.5466169728228342e-13 3.9752202834686955e+02 2.7776232096656740e+03 7.4976626365817092e+03 -999 5.92628512e-01 3.758257821e-02 -1.77954913e-01
 126 5 752103 2.7716069502861792e+03 1.8394369807071844e+03 8.1438068869965140e-13 3.9221741778167268e+02 2.6977273590565096e+03 7.3854647321348066e+03 -999 5.96375720e-01 3.762910530e-02 -1.77184014e-01
 127 5 752103 2.7117500405979499e+03 1.7973821124533195e+03 8.4143900936648528e-13 3.8965604408569703e+02 2.6332384960348654e+03 7.6491362641130145e+03 -999 6.01080900e-01 3.768421007e-02 -1.76238228e-01
 128 5 752103 2.6785474418047352e+03 1.7664187293321850e+03 9.8067373128908816e-13 3.8520245422044331e+02 2.5975029034039644e+03 8.0938845051914377e+03 -999 6.06967021e-01 3.773385986e-02 -1.75066343e-01
 129 5 752103 2.6559392790090819e+03 1.7466510887513325e+03 1.0461018319863087e-12 3.7829702287308038e+02 2.5727124580339619e+03 7.4352305263755052e+03 -999 6.10810637e-01 3.774772214e-02 -1.74312101e-01
 130 5 752103 2.6408791051705834e+03 1.7370196628723993e+03 1.0874211288264225e-12 3.7777787202359571e+02 2.5560804664112648e+03 7.4887202270608195e+03 -999 6.14522027e-01 3.775153263e-02 -1.73594268e-01
 131 5 752103 2.5669031456618341e+03 1.7133436916459200e+03 8.7793841894195860e-13 3.7610357329097218e+02 2.4818245718093481e+03 7.2909294301162217e+03 -999 6.17875207e-01 3.774680597e-02 -1.72961956e-01
 132 5 752103 2.5174180464023716e+03 1.6879294244610855e+03 7.4272744073484422e-13 3.7434960057635169e+02 2.4285932020025771e+03 7.4172202703113844e+03 -999 6.21963402e-01 3.772267389e-02 -1.72209621e-01
 133 5 752103 2.5024771251558168e+03 1.6543134811777536e+03 7.0168156876066065e-13 3.7605076362900860e+02 2.4095135205275310e+03 7.6078608614501163e+03 -999 6.26621989e-01 3.767283320e-02 -1.71378452e-01
 134 5 752103 2.5207432916235653e+03 1.6463164863350150e+03 7.0839892307906061e-13 3.7826589527379178e+02 2.4279044763410088e+03 7.4033169106095538e+03 -999 6.30773258e-01 3.760338899e-02 -1.70662050e-01
 135 5 752103 2.5325681567377806e+03 1.6271055984612092e+03 7.1966325471620221e-13 3.7491981177849556e+02 2.4407663460559438e+03 6.8832205834592442e+03 -999 6.33703572e-01 3.753659102e-02 -1.70171564e-01
 136 5 752103 2.4480043492074351e+03 1.5862276154642964e+03 5.8820337381205533e-13 3.7214094447818445e+02 2.3553478036536430e+03 6.9369872710367536e+03 -999 6.36956305e-01 3.745285366e-02 -1.69663277e-01
 137 5 752103 2.3990258748934102e+03 1.5408586560896176e+03 5.2527597254863153e-13 3.7294348227834138e+02 2.3035278352849155e+03 7.0913604039495476e+03 -999 6.40989965e-01 3.732381949e-02 -1.69052315e-01
 138 5 752103 2.3900329269808776e+03 1.4973263654999978e+03 5.3929970024510260e-13 3.6941877028406623e+02 2.2941829744936426e+03 7.0703141718674324e+03 -999 6.45424209e-01 3.714685461e-02 -1.68412340e-01
 139 5 752103 2.4027554757787198e+03 1.4763376061588233e+03 6.9164780839486977e-13 3.7324064427223283e+02 2.3068657540487034e+03 6.7463665227857764e+03 -999 6.49206399e-01 3.695885498e-02 -1.67889650e-01
 140 5 752103 2.4336823009957920e+03 1.4914915309395374e+03 1.2106195607279926e-12 3.7938907802635958e+02 2.3383636923841477e+03 6.3657770821090107e+03 -999 6.51988002e-01 3.679645677e-02 -1.67518436e-01
 141 5 752103 2.3556414311286348e+03 1.4327383438639613e+03 7.7265277639287595e-13 3.6990165917221111e+02 2.2576972975769827e+03 6.4630294048048008e+03 -999 6.54717061e-01 3.662405428e-02 -1.67181406e-01