TITLE = "005.02 ALPHA 1.50 GRIDLEVEL 1"

VARIABLES = "ITERATION"  "GRID_LEVEL"  "GRID_SIZE"  "CONTINUITY"  "MOMENTUMX"  "MOMENTUMY"  "MOMENTUMZ"  "ENERGY"  "TURB1"  "TURB2"  "CL_TOT"  "CD_TOT"  "CM_TOT"

DATASETAUXDATA ParticipantID   = "005"
DATASETAUXDATA SubmissionDate  = "10-31-2024"
DATASETAUXDATA Name            = "Jeffrey A. Housman"
DATASETAUXDATA Email           = "jeffrey.a.housman@nasa.gov"
DATASETAUXDATA Institution     = "NASA Ames Research Center"
DATASETAUXDATA SolverName      = "LAVA Curvilinear"
DATASETAUXDATA BasicAlgorithm  = "RANS"
DATASETAUXDATA TurbulenceModel = "SA-RC-comp-neg"
DATASETAUXDATA GridId          = "Multiblock"
DATASETAUXDATA Discretization  = "Finite difference"
DATASETAUXDATA Order           = "2"
DATASETAUXDATA DistanceCalc    = "Exact"
DATASETAUXDATA Notes           = " "

ZONE T = "005.02 - Alpha 1.50 - Grid Level 1"
AUXDATA Tstatic         = "271.0"
AUXDATA Deltat          = "-999"
AUXDATA GridFileName    = "ONERA-OAT15A_230mmChord_780mmSpan_upZ_2024_06_25-Structured_23mm_Level-1.x"
AUXDATA Misc            = " "
 0 1 52831 9.0866075384012496e+04 1.5460270046433146e+05 2.0240608215946086e-14 7.3346057005274706e+04 8.9425210425964935e+04 1.9630631312594813e+05 -999 2.73305699e-03 3.092166563e-01 -5.77477825e-04
 1 1 52831 1.1988921724768246e+05 1.2674470121217176e+05 1.8609583032893892e-14 6.4055798619865338e+04 1.1495229549281255e+05 1.2518279431288822e+05 -999 2.31726681e-02 3.167517148e-01 -1.25490841e-02
 2 1 52831 1.4507853979816701e+05 1.1468866819549353e+05 1.7396540138193359e-14 6.8948447131176275e+04 1.3792821179800975e+05 7.9792707453313211e+04 -999 4.30293969e-02 3.307777312e-01 -2.47787225e-02
 3 1 52831 1.7075931351391043e+05 1.0636797324493257e+05 1.6481528759422215e-14 7.8261668281500577e+04 1.6236140616948000e+05 4.9996203549218415e+04 -999 5.85470526e-02 3.478139139e-01 -3.44698173e-02
 4 1 52831 1.9630621148194410e+05 9.7725538914245932e+04 1.5818190148897319e-14 9.0550150970923729e+04 1.8853559520600029e+05 2.2581103725883775e+04 -999 7.40706179e-02 3.668909188e-01 -4.33356963e-02
 5 1 52831 2.1767434337363957e+05 9.6366116261083807e+04 1.5397774953718148e-14 1.0365265751811853e+05 2.1222410031267279e+05 1.7860877484259498e+04 -999 8.67283164e-02 3.859162419e-01 -5.01884019e-02
 6 1 52831 1.9467400717592292e+05 1.2013394788954483e+05 1.5081620911139570e-14 1.0888274114107866e+05 1.9112456412830329e+05 1.4776210903486666e+04 -999 9.53884608e-02 3.985913218e-01 -5.54299690e-02
 7 1 52831 1.8131554421712653e+05 1.3375031612011371e+05 1.4828427497860127e-14 1.0826003256407716e+05 1.7559213743758408e+05 1.2507597838155647e+04 -999 1.01896016e-01 4.065883490e-01 -5.98636283e-02
 8 1 52831 1.9837692169645528e+05 1.3110681761141791e+05 1.4664686335603113e-14 1.0374236349097175e+05 1.9915075193649321e+05 1.0704947278456364e+04 -999 1.07109224e-01 4.075686288e-01 -6.32341995e-02
 9 1 52831 1.9296791983379715e+05 1.1456451513782694e+05 1.4542504809440488e-14 9.8512449170706255e+04 1.9496802923499746e+05 9.3560667262205970e+03 -999 1.11974533e-01 4.044201584e-01 -6.58379307e-02
 10 1 52831 2.0921931730286026e+05 1.1743009337243234e+05 1.4462482089125013e-14 9.7103289541985738e+04 2.1626781957593668e+05 8.2763355951571084e+03 -999 1.16190609e-01 4.012037466e-01 -6.78406661e-02
 11 1 52831 1.6709262255355596e+05 1.0259031636974146e+05 1.4362776088343558e-14 8.6129851851914296e+04 1.7326322254309698e+05 7.1473047491896295e+03 -999 1.20464399e-01 3.976718390e-01 -6.98097396e-02
 12 1 52831 1.4907920676346045e+05 9.1408881808561273e+04 1.4282709415730516e-14 7.9875795643640537e+04 1.4996512580268952e+05 6.3055019780576631e+03 -999 1.24354974e-01 3.946273121e-01 -7.15723915e-02
 13 1 52831 1.3354292295692363e+05 8.1890590786450673e+04 1.4203947790585901e-14 7.2781038441764962e+04 1.3333649279481324e+05 5.6536137678059295e+03 -999 1.27165820e-01 3.922738797e-01 -7.28998520e-02
 14 1 52831 1.5054972126787587e+05 8.3465520814112650e+04 1.4151218318394476e-14 7.1912968315722814e+04 1.5519169402652065e+05 5.1315271277508500e+03 -999 1.29291635e-01 3.901388823e-01 -7.40159050e-02
 15 1 52831 1.2979940557183967e+05 6.8478503127112534e+04 1.4121498469499003e-14 6.4727001054139342e+04 1.3327521268881898e+05 4.6918133283676289e+03 -999 1.30474324e-01 3.884998814e-01 -7.47361842e-02
 16 1 52831 1.1646230270184256e+05 6.8061008668468130e+04 1.4061492850048704e-14 6.0642164382455194e+04 1.1948488779763975e+05 4.1746830746485712e+03 -999 1.31502066e-01 3.865018027e-01 -7.54374617e-02
 17 1 52831 1.0130658433426743e+05 6.6208208406221791e+04 1.3985417262214604e-14 5.4866791649898725e+04 1.0392196904987573e+05 3.7443799789966115e+03 -999 1.32515839e-01 3.841469556e-01 -7.61661185e-02
 18 1 52831 9.7227239442620106e+04 6.0540652199375792e+04 1.3905469148648853e-14 5.0092915658097045e+04 9.8603903086768943e+04 3.3906879109102906e+03 -999 1.33633484e-01 3.811535051e-01 -7.69747453e-02
 19 1 52831 8.7991817983098794e+04 5.4498346424378768e+04 1.3855602906652497e-14 4.5878618725314183e+04 8.9456569423373483e+04 3.1029162125543676e+03 -999 1.34408429e-01 3.788019476e-01 -7.75024773e-02
 20 1 52831 9.9219275591051759e+04 5.8563559121881612e+04 1.3806867878779958e-14 4.5613832156469987e+04 1.0357614017132674e+05 2.8488174217059063e+03 -999 1.35177605e-01 3.762871557e-01 -7.79885340e-02
 21 1 52831 8.0134015935577074e+04 5.4132481836287225e+04 1.3699992022948637e-14 4.0273070881134132e+04 8.5309568881783183e+04 2.5431274238793476e+03 -999 1.35802629e-01 3.736880214e-01 -7.83524484e-02
 22 1 52831 6.3921124439645580e+04 4.6779771992482092e+04 1.3570461299640611e-14 3.5161027484153507e+04 6.6905220066113019e+04 2.2948828107675026e+03 -999 1.36447362e-01 3.707214611e-01 -7.87132228e-02
 23 1 52831 5.6968305287105948e+04 4.2784819829021115e+04 1.3410802973480732e-14 3.1158285504101961e+04 5.7700431407603864e+04 2.0846784804818931e+03 -999 1.37132752e-01 3.671662464e-01 -7.90864448e-02
 24 1 52831 5.5150133264635893e+04 4.0536073057937581e+04 1.3281290637539580e-14 2.8741805334207584e+04 5.6900622527180822e+04 1.9112257968890226e+03 -999 1.37592291e-01 3.644094599e-01 -7.93346726e-02
 25 1 52831 6.0734701758396383e+04 4.2276310352165106e+04 1.3152884308085219e-14 2.8023412440338590e+04 6.4059412237171324e+04 1.7615043243478174e+03 -999 1.37995448e-01 3.617261349e-01 -7.95546842e-02
 26 1 52831 4.9293899977758992e+04 3.8747519947532230e+04 1.3008856909039968e-14 2.4830481492486575e+04 5.3294241676545556e+04 1.5546485504148050e+03 -999 1.38280360e-01 3.591316477e-01 -7.97126442e-02
 27 1 52831 3.7105214801787428e+04 3.4233859009009939e+04 1.2818655455015579e-14 2.1262717248500809e+04 3.9927832784018188e+04 1.3829238284999940e+03 -999 1.38608320e-01 3.559354251e-01 -7.98954091e-02
 28 1 52831 2.9716552414848818e+04 3.0954820315752444e+04 1.2603305957274542e-14 1.8293396532216753e+04 3.0536059094090164e+04 1.2388207106533885e+03 -999 1.38936644e-01 3.524732370e-01 -8.00784786e-02
 29 1 52831 2.9453312300365993e+04 2.9753765857274073e+04 1.2408848064681853e-14 1.6672349350942332e+04 3.0468835130554140e+04 1.1205640073807961e+03 -999 1.39211762e-01 3.493459222e-01 -8.02326766e-02
 30 1 52831 3.0834505353434237e+04 2.9308365178178046e+04 1.2221752017457339e-14 1.5781155174054491e+04 3.2533501821641319e+04 1.0228011573273121e+03 -999 1.39455730e-01 3.463963192e-01 -8.03704017e-02
 31 1 52831 2.5778340337821057e+04 2.7420278115654426e+04 1.2039323578589610e-14 1.4411816435552057e+04 2.7902660629696747e+04 8.8004576789047974e+02 -999 1.39605589e-01 3.437748187e-01 -8.04587071e-02
 32 1 52831 1.9906309353257522e+04 2.5337485148052627e+04 1.1810272089807302e-14 1.2834244222156722e+04 2.1726052904491331e+04 7.6674981289172206e+02 -999 1.39782498e-01 3.405565172e-01 -8.05628688e-02
 33 1 52831 1.5338638440512988e+04 2.3389352732517113e+04 1.1532437450978717e-14 1.1298892941012049e+04 1.6150648550816268e+04 6.7356831100084730e+02 -999 1.39982597e-01 3.367591659e-01 -8.06787102e-02
 34 1 52831 1.3760216414658755e+04 2.2194141150917534e+04 1.1265233333414407e-14 1.0244391384391072e+04 1.4155804461723956e+04 5.9694912913237943e+02 -999 1.40172064e-01 3.329832206e-01 -8.07857771e-02
 35 1 52831 1.3309791790259877e+04 2.1389884147333716e+04 1.1020056864256421e-14 9.5499071822871683e+03 1.3883273209297675e+04 5.3618913652311664e+02 -999 1.40335603e-01 3.295552497e-01 -8.08762327e-02
 36 1 52831 1.1608440264523231e+04 2.0296293117086108e+04 1.0782706060578408e-14 8.8743789129860652e+03 1.2182545349505735e+04 4.5940180860898226e+02 -999 1.40423208e-01 3.261677417e-01 -8.09161527e-02
 37 1 52831 9.7418991126486835e+03 1.9119516652079237e+04 1.0464152072180751e-14 8.0926282198758090e+03 1.0196718423033741e+04 3.9527112235738400e+02 -999 1.40527901e-01 3.218649912e-01 -8.09562476e-02
 38 1 52831 8.2713264328712066e+03 1.7930364186117193e+04 1.0088602304134166e-14 7.2807239098292157e+03 8.5608835960686283e+03 3.4676768334624126e+02 -999 1.40651629e-01 3.166129383e-01 -8.09891305e-02
 39 1 52831 7.4937252446738721e+03 1.6924124078938152e+04 9.6914712477901950e-15 6.6047030555627807e+03 7.7704929375050624e+03 3.1202333615429313e+02 -999 1.40781928e-01 3.111202450e-01 -8.10053846e-02
 40 1 52831 7.0756233537676435e+03 1.6108235399780098e+04 9.3443908536369054e-15 6.0868475320867665e+03 7.4572014501066888e+03 2.8731856316119502e+02 -999 1.40912111e-01 3.058887522e-01 -8.10063522e-02
 41 1 52831 6.4107086896773435e+03 1.5184821057011639e+04 8.9336357011909793e-15 5.5797164600229871e+03 6.9101878148981959e+03 2.6612762816213171e+02 -999 1.41068029e-01 2.994937330e-01 -8.09360591e-02
 42 1 52831 5.8574138325442846e+03 1.4153578611055234e+04 8.4358762098457138e-15 5.0777667675861621e+03 6.5093226170528287e+03 2.6715493202351382e+02 -999 1.41344847e-01 2.911806790e-01 -8.08457680e-02
 43 1 52831 5.5864889797405440e+03 1.3246977395417436e+04 7.9289032499135970e-15 4.6618546879768137e+03 6.3971537891946682e+03 2.7625065896824174e+02 -999 1.41833310e-01 2.823048398e-01 -8.07422821e-02
 44 1 52831 5.5529120205889230e+03 1.2421568249863623e+04 7.4202077923287161e-15 4.4138571099081519e+03 6.4992404290470249e+03 2.7673559079422284e+02 -999 1.42592993e-01 2.725030105e-01 -8.06760355e-02
 45 1 52831 5.6554016725711999e+03 1.1733337090651261e+04 7.0045024715284350e-15 4.3328831004325721e+03 6.6852873519333543e+03 2.8028612059096611e+02 -999 1.43587086e-01 2.626707272e-01 -8.07011412e-02
 46 1 52831 5.6891490302953380e+03 1.0892176198664241e+04 6.5005661736352025e-15 4.2660115618454220e+03 6.7240478460112590e+03 3.0343691608494157e+02 -999 1.45401536e-01 2.493879841e-01 -8.10075651e-02
 47 1 52831 5.7737036648469229e+03 9.8853700289833905e+03 5.9138732456068070e-15 4.2648507277307208e+03 6.7404912973637174e+03 3.2232739588343810e+02 -999 1.48549399e-01 2.301842960e-01 -8.19260155e-02
 48 1 52831 5.8066988101522911e+03 9.0407891752247615e+03 5.3810512264430269e-15 4.2346507415799288e+03 6.6504878891483131e+03 3.5268735786006135e+02 -999 1.52548287e-01 2.086487020e-01 -8.38641569e-02
 49 1 52831 5.6801098132246234e+03 8.5344194557653882e+03 4.9725473687153672e-15 4.0918534863205637e+03 6.3897303317288852e+03 4.5319167996404121e+02 -999 1.56230273e-01 1.879384459e-01 -8.68639303e-02
 50 1 52831 5.3760841311886725e+03 8.4201402617886251e+03 4.6100482148861078e-15 3.8937289055139277e+03 5.9517910746402658e+03 8.7509905090156963e+02 -999 1.58689127e-01 1.689307181e-01 -9.06727981e-02
 51 1 52831 4.6009621651875277e+03 7.5125964529819603e+03 4.0973066564387791e-15 3.5714966261863619e+03 4.8973971573519584e+03 2.1528621707435605e+03 -999 1.58796966e-01 1.437438552e-01 -9.67142873e-02
 52 1 52831 4.0141135221965046e+03 6.9824344933295879e+03 3.6356102171719012e-15 3.2944211941167778e+03 4.1469585879579117e+03 3.3266821104960795e+03 -999 1.53564162e-01 1.248583356e-01 -1.01180815e-01
 53 1 52831 3.5910180180980360e+03 6.8343214506098275e+03 3.2625299033357277e-15 2.8114086837505911e+03 3.6294522283034385e+03 5.4204172235513934e+03 -999 1.45157650e-01 1.110883783e-01 -1.03256703e-01
 54 1 52831 3.4429314722566310e+03 7.3805789614166451e+03 2.9605438437511680e-15 2.1466167054060293e+03 3.3169507655932180e+03 7.0046178268768308e+03 -999 1.38213891e-01 1.027076970e-01 -1.03378711e-01
 55 1 52831 3.4206758880049533e+03 7.6600939363460684e+03 2.7772378231282738e-15 1.9008977672392773e+03 3.1588089259081180e+03 7.5334745863067783e+03 -999 1.36066959e-01 9.924245369e-02 -1.03281887e-01
 56 1 52831 2.5398480035784105e+03 6.3266744201859656e+03 2.6862911859874325e-15 1.7634875580363303e+03 2.4468884243794710e+03 6.9758744507241527e+03 -999 1.34876404e-01 9.310644435e-02 -1.03442855e-01
 57 1 52831 2.1058533505863229e+03 4.8485435755615908e+03 2.7008259571305544e-15 1.8754294147784767e+03 2.0526717239662130e+03 5.6161061324271068e+03 -999 1.41304972e-01 8.770721119e-02 -1.05576650e-01
 58 1 52831 2.0738346975800546e+03 3.8094760736566127e+03 2.7063214912784685e-15 2.0182617883589967e+03 2.0160813453809144e+03 4.5196134708039335e+03 -999 1.55088797e-01 8.342383745e-02 -1.10429426e-01
 59 1 52831 2.4545749144122010e+03 3.6335577333399365e+03 2.6905917719543263e-15 1.8371166022664645e+03 2.3287201794363241e+03 4.0014364537958704e+03 -999 1.72685061e-01 7.940862178e-02 -1.17579675e-01
 60 1 52831 2.6540769441978282e+03 3.7511102462343374e+03 2.5576555259927316e-15 1.7031110710722789e+03 2.5081785867344465e+03 3.6761824070048133e+03 -999 1.83812160e-01 7.717062004e-02 -1.22792361e-01
 61 1 52831 1.9243553974540707e+03 2.5713412532835946e+03 2.5535081921997417e-15 1.2724771375002306e+03 1.9120262066959278e+03 5.4227748441655967e+03 -999 2.10547432e-01 7.275444388e-02 -1.37092669e-01
 62 1 52831 1.5223252045470938e+03 1.8926639937930909e+03 2.5231733121043891e-15 1.1131761171312050e+03 1.5137730358561078e+03 4.6819784992144387e+03 -999 2.35685959e-01 6.828274099e-02 -1.51328098e-01
 63 1 52831 1.4039711639853272e+03 1.9435757161298261e+03 2.5362873131324457e-15 1.0081306757567631e+03 1.3578226975813056e+03 6.6283784988169327e+03 -999 2.58612607e-01 6.371917358e-02 -1.63383791e-01
 64 1 52831 1.4432913825473727e+03 2.3421423689927965e+03 2.5812446830306920e-15 9.1434037730504338e+02 1.3585980665603859e+03 7.7198992720494125e+03 -999 2.81110473e-01 5.898191678e-02 -1.72950297e-01
 65 1 52831 1.6210663852934440e+03 2.6829014791591317e+03 2.8131766062549281e-15 8.8769698037739431e+02 1.5667097627380629e+03 7.4339332368415717e+03 -999 3.05603495e-01 5.429824910e-02 -1.80686127e-01
 66 1 52831 1.1626804078669400e+03 1.9864514124809839e+03 8.4595097516350994e-14 5.8952905714368319e+02 1.1181129249715163e+03 7.3743389089254715e+03 -999 3.34942257e-01 5.021599618e-02 -1.86416787e-01
 67 1 52831 1.0664349854979948e+03 1.4333634894674933e+03 1.3792506729796489e-13 4.2883002063410555e+02 1.0375245754003304e+03 6.0831577832444109e+03 -999 3.67371188e-01 4.669625517e-02 -1.91040629e-01
 68 1 52831 1.0791286025688839e+03 1.1713451652575222e+03 1.5951927917253536e-13 3.5162486502348128e+02 1.0749737363738104e+03 5.2292818825132126e+03 -999 3.94825739e-01 4.463928286e-02 -1.93711744e-01
 69 1 52831 1.1644909273413293e+03 1.0716115792596879e+03 1.6673193557975814e-13 3.1078332789791926e+02 1.1834884515417857e+03 4.2390569094642269e+03 -999 4.15234216e-01 4.349947506e-02 -1.94934405e-01
 70 1 52831 1.2953016899026693e+03 1.0391214735125893e+03 1.6831321665627257e-13 2.8889903828228285e+02 1.3415357163359413e+03 3.5655335535800114e+03 -999 4.30998573e-01 4.283375742e-02 -1.95469867e-01
 71 1 52831 9.1360837622240786e+02 8.7396307566749852e+02 1.1245320361412180e-13 2.2615354214274194e+02 9.0907828973845881e+02 2.6006908817956892e+03 -999 4.68997377e-01 4.195942781e-02 -1.94784396e-01
 72 1 52831 6.8403112206303365e+02 7.2808555137085705e+02 6.5302448421690240e-14 1.7982601071175256e+02 6.5935842644813499e+02 2.1377726662843556e+03 -999 5.17332432e-01 4.108221729e-02 -1.92483037e-01
 73 1 52831 6.4227931731960246e+02 6.3319689263298085e+02 3.9846417968948481e-14 1.4960876168172766e+02 6.2435346221774864e+02 1.9570023258930996e+03 -999 5.61731901e-01 4.066484997e-02 -1.88455970e-01
 74 1 52831 6.9123668624886523e+02 6.0219218837376945e+02 2.9736505650860695e-14 1.3155808237965590e+02 6.8111910949709022e+02 1.8444291001655672e+03 -999 5.86789072e-01 4.064730129e-02 -1.85186531e-01
 75 1 52831 7.2407333102939799e+02 5.8433737477755108e+02 2.4342531804452573e-14 1.2098298502627061e+02 7.1388609343679809e+02 1.7716190780587551e+03 -999 6.02837661e-01 4.068963254e-02 -1.82803581e-01
 76 1 52831 5.5178571015962893e+02 5.5238081675131627e+02 2.0095932297580306e-14 1.1139643105633174e+02 5.3027430316697246e+02 2.1578159522694732e+03 -999 6.26982601e-01 3.991478883e-02 -1.79594746e-01
 77 1 52831 4.3896306568218051e+02 5.2722672526789790e+02 1.6523580260297127e-14 1.0564721682922702e+02 4.1273166087889808e+02 2.4521081114823987e+03 -999 6.50604263e-01 3.884142839e-02 -1.76529036e-01
 78 1 52831 3.6297722026776273e+02 4.5633795300796049e+02 1.3305651034110954e-14 1.0174275910705096e+02 3.3587229460339512e+02 2.8701969581840626e+03 -999 6.76489759e-01 3.733420589e-02 -1.73174327e-01
 79 1 52831 3.3756636461644399e+02 4.4276543013594954e+02 1.1439976746640695e-14 9.8841882456977956e+01 3.1096888796224624e+02 4.1041328803873985e+03 -999 6.91630640e-01 3.620066475e-02 -1.71152204e-01
 80 1 52831 3.2961044176182048e+02 4.0734716451582278e+02 9.7594113135664744e-15 9.6971009910504137e+01 3.0593212155037162e+02 4.3963296849325734e+03 -999 7.04093144e-01 3.514293805e-02 -1.69413729e-01
 81 1 52831 2.8944505585380921e+02 4.0344478547888303e+02 8.2959860895582301e-15 1.0465484422008456e+02 2.6689950211294820e+02 2.9469279130781169e+03 -999 7.21640820e-01 3.356962195e-02 -1.67666660e-01
 82 1 52831 2.5693007940652149e+02 4.1539106244594473e+02 6.9256240904868770e-15 1.2845679761074499e+02 2.3613253293199406e+02 3.1578348664097448e+03 -999 7.41714756e-01 3.177238625e-02 -1.65947948e-01
 83 1 52831 2.3251324257463921e+02 4.2609710152827239e+02 5.6778483866798020e-15 1.6143452965199103e+02 2.1333560180231476e+02 2.6884378906702677e+03 -999 7.65517496e-01 2.958704857e-02 -1.63773160e-01
 84 1 52831 2.2788399176266415e+02 4.2593625748875087e+02 5.0523657351227654e-15 1.6688712406390829e+02 2.1027633261774818e+02 3.1966162119943538e+03 -999 7.76210230e-01 2.837479075e-02 -1.62062494e-01
 85 1 52831 2.1834394263979377e+02 4.1212291465210620e+02 4.4289163895917637e-15 1.6184513370804197e+02 2.0180550401307184e+02 3.0417885645998740e+03 -999 7.87364514e-01 2.698887400e-02 -1.59972398e-01
 86 1 52831 2.0013111616955086e+02 3.5773703701102238e+02 5.1010982358908365e-15 1.3172792681542717e+02 1.8154437600632767e+02 2.9340203700020093e+03 -999 7.93895574e-01 2.604240373e-02 -1.58533326e-01
 87 1 52831 2.0355540517577882e+02 3.0130099379851066e+02 1.0597007762049821e-14 1.0431425915848337e+02 1.8304700620167401e+02 2.6529294190049345e+03 -999 8.03659858e-01 2.475013726e-02 -1.56707468e-01
 88 1 52831 2.0396175917972852e+02 2.7300929788736335e+02 1.6904643542381959e-14 9.2857381089330502e+01 1.8311838489119714e+02 2.6853048019646099e+03 -999 8.11472442e-01 2.374707187e-02 -1.55305933e-01
 89 1 52831 2.1542229183354351e+02 2.5824142370447089e+02 2.2558904149018206e-14 8.8971489267655571e+01 1.9395978999351286e+02 2.6409321916149152e+03 -999 8.17929359e-01 2.289052909e-02 -1.54075027e-01
 90 1 52831 2.1579963551303607e+02 2.5354655798248095e+02 2.4620161224668169e-14 8.8391206600991211e+01 1.9471212344811033e+02 2.7643557038000986e+03 -999 8.20021463e-01 2.254568075e-02 -1.53482177e-01
 91 1 52831 1.9149653771107569e+02 2.2751269610855255e+02 1.5294589820034327e-13 8.2469004249809643e+01 1.6860293549948327e+02 2.6468308402093553e+03 -999 8.26501835e-01 2.198308572e-02 -1.52976082e-01
 92 1 52831 1.9401834819480436e+02 2.1671268533849872e+02 2.0224180618396657e-13 8.1182365863977552e+01 1.7189168730245012e+02 2.6118724549438675e+03 -999 8.30585177e-01 2.145044466e-02 -1.52236886e-01
 93 1 52831 1.9953178757030932e+02 2.1066644099051985e+02 2.2048894102361848e-13 7.7751396556244813e+01 1.7652527890246509e+02 2.6660199902441668e+03 -999 8.33569813e-01 2.091053469e-02 -1.51201808e-01
 94 1 52831 2.2091664220289945e+02 2.1110866361889933e+02 2.3113465099740004e-13 7.4434575248803668e+01 1.9729056923201179e+02 2.6483201132517979e+03 -999 8.35981975e-01 2.048024677e-02 -1.50395580e-01
 95 1 52831 2.2147415280717203e+02 2.0863817328577747e+02 2.3672062511515257e-13 7.3295012118658107e+01 1.9824070356685453e+02 2.7428909479652052e+03 -999 8.36616198e-01 2.027067075e-02 -1.49949794e-01
 96 1 52831 1.9077976311749441e+02 1.8392547087491658e+02 1.4824333496727234e-13 7.1612062646983418e+01 1.6731684615674314e+02 2.6871908627206990e+03 -999 8.38085503e-01 1.978520875e-02 -1.48623929e-01
 97 1 52831 1.8978771091878821e+02 1.7310372180353735e+02 1.2650488612541821e-13 7.1958850266490487e+01 1.6723674373697557e+02 2.9329853387022013e+03 -999 8.40636771e-01 1.951211235e-02 -1.48197503e-01
 98 1 52831 1.9942499691546158e+02 1.7966047739319774e+02 1.0599847956327681e-13 7.0473209963564827e+01 1.7559390453423890e+02 2.9389368462216835e+03 -999 8.41702248e-01 1.917950025e-02 -1.47475991e-01
 99 1 52831 2.0740563954768240e+02 1.7793462468666220e+02 9.9039019833079670e-14 7.0048510986541515e+01 1.8214691186234967e+02 2.6490692486742696e+03 -999 8.41616852e-01 1.897907263e-02 -1.46993337e-01
 100 1 52831 2.1611891788900070e+02 1.7942949073188615e+02 9.8854156756983439e-14 6.9770248888758289e+01 1.8982290026956989e+02 2.3841057699062571e+03 -999 8.41580302e-01 1.892595369e-02 -1.46867354e-01
 101 1 52831 1.6151966233602008e+02 1.5733144539313454e+02 1.2139191591598930e-13 7.1014200824617092e+01 1.3917615739782792e+02 3.0443787267871503e+03 -999 8.42370198e-01 1.871312384e-02 -1.46416665e-01
 102 1 52831 1.4634774709209771e+02 1.4933345697126251e+02 1.2732238556196187e-13 6.1179898287743136e+01 1.2469435372100304e+02 2.7715029822868996e+03 -999 8.43231320e-01 1.836420648e-02 -1.45880577e-01
 103 1 52831 1.4755569264938006e+02 1.4765161871240511e+02 1.2692271460681082e-13 5.7070387631677427e+01 1.2535724198564347e+02 2.7065476682700573e+03 -999 8.43376230e-01 1.811992953e-02 -1.45411241e-01
 104 1 52831 1.5356922505530196e+02 1.5066369661105691e+02 1.2717098898008124e-13 5.6435853295083483e+01 1.3076377156961522e+02 2.4134478787106023e+03 -999 8.43368462e-01 1.807316608e-02 -1.45314091e-01
 105 1 52831 1.5480027192776149e+02 1.5177081967656108e+02 1.2645463449504192e-13 5.6850838495298049e+01 1.3189426086033038e+02 1.8434631542201262e+03 -999 8.43368165e-01 1.806505120e-02 -1.45297685e-01
 106 1 52831 1.7022748844629581e+02 1.2378467686516788e+02 6.6164153471371233e-14 3.8467839249843379e+01 1.4942363127453731e+02 1.9114466716624650e+03 -999 8.43967859e-01 1.811717941e-02 -1.45508285e-01
 107 1 52831 2.0930750579526631e+02 1.1204253003361929e+02 3.0284149195214986e-14 3.3953152231768222e+01 1.8877590588035284e+02 1.9812688715165691e+03 -999 8.44737090e-01 1.819035929e-02 -1.45809352e-01
 108 1 52831 2.4193747762005117e+02 1.4371976057160555e+02 2.0091429361322460e-14 3.3701346589907196e+01 2.1998658698941412e+02 1.9920688290137284e+03 -999 8.45187055e-01 1.822589367e-02 -1.45994495e-01
 109 1 52831 2.4913550241112790e+02 1.3529311409141903e+02 1.8518205570798225e-14 3.2414162658496636e+01 2.2547412744501889e+02 1.9238118576753429e+03 -999 8.45273812e-01 1.822484318e-02 -1.46034271e-01
 110 1 52831 2.5346919970690269e+02 1.4324132719682552e+02 1.7372265047489873e-14 3.1672962936065417e+01 2.3065839218858616e+02 1.9216783908597574e+03 -999 8.45315670e-01 1.821450812e-02 -1.46055271e-01
 111 1 52831 2.5277655973101699e+02 1.1087891938743989e+02 1.6816771994707073e-14 2.9958540402252030e+01 2.3143666667244074e+02 1.9032528113988410e+03 -999 8.45460373e-01 1.822006374e-02 -1.46124291e-01
 112 1 52831 2.6096296724603775e+02 1.0189074435324804e+02 1.7722367895235162e-14 2.9028860645936511e+01 2.4031544781196473e+02 1.9099883661339670e+03 -999 8.45586965e-01 1.821671600e-02 -1.46189124e-01
 113 1 52831 2.7660415885187842e+02 1.3283002235542710e+02 1.8879970191925333e-14 3.2169212991198485e+01 2.5550356661388614e+02 1.8997875733810224e+03 -999 8.45764292e-01 1.820984036e-02 -1.46275958e-01
 114 1 52831 2.7935059342782125e+02 1.1760744074485980e+02 1.8687888333927748e-14 3.0445631527512116e+01 2.5651679853158373e+02 1.8400819286877663e+03 -999 8.45827630e-01 1.820115827e-02 -1.46308926e-01
 115 1 52831 2.8322036281281891e+02 1.3268328487980523e+02 1.8302225182567690e-14 3.0534350782924907e+01 2.6057876651527363e+02 1.8297303200716221e+03 -999 8.45852852e-01 1.818265406e-02 -1.46325518e-01
 116 1 52831 2.8761102019208573e+02 1.0996366076656848e+02 1.7057105122126374e-14 3.0182633577162893e+01 2.6609137598097533e+02 1.8194144790222754e+03 -999 8.45748708e-01 1.813584099e-02 -1.46271503e-01
 117 1 52831 2.9638887760063204e+02 9.8805847783746586e+01 1.6796700622658445e-14 2.9813980810416343e+01 2.7431618100266775e+02 1.8161365544861515e+03 -999 8.45528363e-01 1.806084572e-02 -1.46157097e-01
 118 1 52831 3.0359348670930956e+02 1.1140695211085290e+02 1.6272678944307872e-14 2.9607188991795098e+01 2.8117461113375992e+02 1.8140112172330287e+03 -999 8.45195209e-01 1.796822474e-02 -1.45983552e-01
 119 1 52831 3.2080397430579569e+02 1.5099345239921354e+02 1.5768313156670697e-14 3.3597835057937516e+01 2.9802156087819844e+02 1.8213498017117720e+03 -999 8.44792623e-01 1.786584458e-02 -1.45764707e-01
 120 1 52831 3.3003507829097219e+02 1.2273015501928012e+02 1.4960444513127768e-14 3.1675593315594540e+01 3.0555192250191874e+02 1.8225847164920206e+03 -999 8.44504847e-01 1.778226226e-02 -1.45584981e-01
 121 1 52831 3.2766194971147559e+02 9.8687448624035810e+01 1.3413790173089418e-14 3.3987071084750035e+01 3.0485648144032808e+02 1.8348283244436871e+03 -999 8.44349950e-01 1.772409436e-02 -1.45464585e-01
 122 1 52831 3.2393724978037085e+02 9.5427986289639804e+01 1.2444486291704243e-14 3.1881378475226903e+01 3.0105759309087256e+02 1.8252686682068336e+03 -999 8.44208480e-01 1.767149949e-02 -1.45348250e-01
 123 1 52831 3.1498137140650402e+02 9.5798220743970504e+01 1.1902930600455945e-14 3.1395241547557223e+01 2.9222501133319651e+02 1.8122922917651661e+03 -999 8.44031698e-01 1.761355893e-02 -1.45209089e-01
 124 1 52831 3.1332336536036917e+02 9.6759903437711060e+01 1.1421331097067951e-14 3.0540626879562168e+01 2.9056829042673644e+02 1.8079016833424507e+03 -999 8.43881100e-01 1.755713196e-02 -1.45072751e-01
 125 1 52831 3.1146723729652263e+02 9.7226669546604768e+01 1.1512744967313297e-14 3.0368540214029139e+01 2.8897691337785062e+02 1.8080605611789806e+03 -999 8.43815571e-01 1.751219318e-02 -1.44969533e-01
 126 1 52831 2.9142606564730499e+02 9.6684487883087911e+01 9.8700054797918185e-15 2.9793619147828057e+01 2.6971888045587707e+02 1.8299003080038019e+03 -999 8.43813195e-01 1.746964909e-02 -1.44876499e-01
 127 1 52831 2.7075945521992122e+02 9.7638919322389697e+01 9.8095835888763943e-15 2.8720830414211125e+01 2.4967223776508004e+02 1.8216799459341853e+03 -999 8.43846791e-01 1.744067547e-02 -1.44811303e-01
 128 1 52831 2.5258414269400242e+02 9.7753086948731678e+01 9.5703045787731534e-15 2.7874212621062398e+01 2.3221668507690788e+02 1.8132848671194176e+03 -999 8.43816095e-01 1.740894880e-02 -1.44726175e-01
 129 1 52831 2.3510013469683852e+02 9.8348818438135652e+01 8.8382234284555220e-15 2.7076378809560691e+01 2.1532728643026044e+02 1.8177390286320372e+03 -999 8.43798471e-01 1.738238040e-02 -1.44649712e-01
 130 1 52831 2.2058801885099376e+02 9.7438400542721311e+01 7.7600476645628858e-15 2.6940313530864078e+01 2.0132849857326599e+02 1.8383147133674736e+03 -999 8.43778919e-01 1.736056657e-02 -1.44575178e-01
 131 1 52831 1.9208642971999942e+02 9.5745372190711677e+01 9.5686213051376754e-15 3.1224595339356860e+01 1.7395832341416858e+02 1.8849632474302143e+03 -999 8.43749692e-01 1.733178653e-02 -1.44464541e-01
 132 1 52831 1.6632228110148992e+02 9.4824038076116764e+01 1.0102191598029253e-14 3.0403881815987802e+01 1.4933295329519760e+02 1.8973645921543896e+03 -999 8.43802221e-01 1.731724129e-02 -1.44390678e-01
 133 1 52831 1.4354775811018266e+02 9.2503213878860493e+01 1.0992281568437874e-14 2.4917936955513213e+01 1.2774723516811073e+02 1.9434072823940310e+03 -999 8.43945303e-01 1.732291996e-02 -1.44375751e-01
 134 1 52831 1.2814968812206806e+02 9.1734099029212587e+01 1.1383240953063945e-14 2.5299487897438883e+01 1.1299947428260721e+02 1.9492628065139882e+03 -999 8.44092446e-01 1.733319478e-02 -1.44368625e-01
 135 1 52831 1.1750708180569731e+02 9.0458190591984192e+01 1.1252041794743704e-14 2.4375861728048068e+01 1.0252967855066217e+02 1.9594555252384471e+03 -999 8.44174138e-01 1.733235049e-02 -1.44321303e-01
 136 1 52831 9.4621562600032519e+01 8.7218264534487773e+01 4.9429707426328933e-15 2.0640897192865346e+01 7.9755451242871786e+01 2.1349997640169172e+03 -999 8.44151459e-01 1.729999745e-02 -1.44138875e-01
 137 1 52831 7.8737218070086655e+01 8.3877289226396528e+01 4.6068288230434461e-15 1.6944721087163849e+01 6.2796591846661265e+01 2.1040774382426494e+03 -999 8.44090551e-01 1.725486075e-02 -1.43909260e-01
 138 1 52831 6.7738509572308146e+01 8.0386821482067944e+01 4.8107447373023691e-15 1.3729121872748252e+01 5.0679968532562548e+01 2.1180857533488856e+03 -999 8.44151593e-01 1.722244872e-02 -1.43735470e-01
 139 1 52831 5.9964730122300445e+01 7.7793277194906267e+01 5.2270857478656211e-15 1.2500337753589294e+01 4.1945550744445278e+01 2.1552949489694624e+03 -999 8.44242814e-01 1.719507226e-02 -1.43599371e-01
 140 1 52831 5.4266010690610152e+01 7.5145182724176451e+01 5.4088470343255374e-15 1.1884901549506715e+01 3.4803049695110850e+01 2.1984668863342349e+03 -999 8.44299262e-01 1.716547226e-02 -1.43477573e-01
 141 1 52831 4.8713190963934963e+01 7.2441416917240062e+01 9.0850757774817892e-15 1.2230740933417806e+01 2.7703916025184920e+01 2.4376528435625810e+03 -999 8.44111344e-01 1.708900253e-02 -1.43203420e-01
 142 1 52831 4.6647565427262187e+01 7.0178476614570485e+01 9.6477599954118032e-15 1.2955701982047833e+01 2.5686318917758360e+01 2.5107079639280605e+03 -999 8.43870002e-01 1.701556183e-02 -1.42961926e-01