TITLE = "005.02 ALPHA 3.60 GRIDLEVEL 1"

VARIABLES = "ITERATION"  "GRID_LEVEL"  "GRID_SIZE"  "CONTINUITY"  "MOMENTUMX"  "MOMENTUMY"  "MOMENTUMZ"  "ENERGY"  "TURB1"  "TURB2"  "CL_TOT"  "CD_TOT"  "CM_TOT"

DATASETAUXDATA ParticipantID   = "005"
DATASETAUXDATA SubmissionDate  = "10-31-2024"
DATASETAUXDATA Name            = "Jeffrey A. Housman"
DATASETAUXDATA Email           = "jeffrey.a.housman@nasa.gov"
DATASETAUXDATA Institution     = "NASA Ames Research Center"
DATASETAUXDATA SolverName      = "LAVA Curvilinear"
DATASETAUXDATA BasicAlgorithm  = "RANS"
DATASETAUXDATA TurbulenceModel = "SA-RC-comp-neg"
DATASETAUXDATA GridId          = "Multiblock"
DATASETAUXDATA Discretization  = "Finite difference"
DATASETAUXDATA Order           = "2"
DATASETAUXDATA DistanceCalc    = "Exact"
DATASETAUXDATA Notes           = " "

ZONE T = "005.02 - Alpha 3.60 - Grid Level 1"
AUXDATA Tstatic         = "271.0"
AUXDATA Deltat          = "-999"
AUXDATA GridFileName    = "ONERA-OAT15A_230mmChord_780mmSpan_upZ_2024_06_25-Structured_23mm_Level-1.x"
AUXDATA Misc            = " "
 0 1 52831 9.7773947569910073e+04 1.6619025668172186e+05 2.0240695165713813e-14 8.3620202595561714e+04 9.8851740638964213e+04 1.9788041249241985e+05 -999 6.20465557e-03 3.095443874e-01 -4.28333574e-03
 1 1 52831 1.2773256229199270e+05 1.3711002475812443e+05 1.8623323010080445e-14 7.0985331016795637e+04 1.2409954106743897e+05 1.2620198425227278e+05 -999 5.20485892e-02 3.193211221e-01 -2.27143097e-02
 2 1 52831 1.4048188507357135e+05 1.2134931133595113e+05 1.8924323890361465e-14 7.7136595194735361e+04 1.3484240863852203e+05 8.0368299859656909e+04 -999 1.01602943e-01 3.356982037e-01 -4.22627479e-02
 3 1 52831 1.4574612603772944e+05 1.0790852286913096e+05 8.7359029907204932e-14 8.4678944048153615e+04 1.3883250302910290e+05 5.0263320524662246e+04 -999 1.44638621e-01 3.528212426e-01 -6.03202348e-02
 4 1 52831 1.4647373646237646e+05 1.0021885395929519e+05 8.0299574697641836e-14 9.0662717576434370e+04 1.3888033395323736e+05 2.2767163714620630e+04 -999 1.81011441e-01 3.689788650e-01 -7.40811173e-02
 5 1 52831 1.4206372462378311e+05 1.0052378255496465e+05 4.9573768717087677e-13 9.4483945516895328e+04 1.3440803570238058e+05 1.7788762880333499e+04 -999 2.10546080e-01 3.824335599e-01 -8.42884740e-02
 6 1 52831 1.3887894144073068e+05 1.0497179082553397e+05 4.2992380797433596e-13 9.5666199375466327e+04 1.3134692270110638e+05 1.4641813917049047e+04 -999 2.31792916e-01 3.923542175e-01 -9.19357742e-02
 7 1 52831 1.3606524946740031e+05 1.0870271815663741e+05 3.9090550891285770e-13 9.3547336017756315e+04 1.2872907630769433e+05 1.2253736558119179e+04 -999 2.46953990e-01 3.987125637e-01 -9.76535808e-02
 8 1 52831 1.3403987821740162e+05 1.0732222010379213e+05 4.0941175032862165e-13 8.9048767923174484e+04 1.2833899267982779e+05 1.0341553926341936e+04 -999 2.59976770e-01 4.021248387e-01 -1.02779001e-01
 9 1 52831 1.3068516949236808e+05 1.0003366226955227e+05 5.9876018996638064e-13 8.3445691606950961e+04 1.2719967821749888e+05 8.9964892184995151e+03 -999 2.72680219e-01 4.036519410e-01 -1.07442579e-01
 10 1 52831 1.2575386145841570e+05 9.1034251059867311e+04 1.0635103606976471e-12 7.7822474455111704e+04 1.2379856756660028e+05 7.9839050597079677e+03 -999 2.84841336e-01 4.042595827e-01 -1.11439176e-01
 11 1 52831 1.1719381641729489e+05 8.5953988148180477e+04 9.7377175458466773e-13 7.2242424365412691e+04 1.1606700016259415e+05 6.9320252054656703e+03 -999 2.96904980e-01 4.046612809e-01 -1.15294374e-01
 12 1 52831 1.1029481731155745e+05 8.0177971038445830e+04 3.1750137190864490e-12 6.6962507199241663e+04 1.0988970623227277e+05 6.1584236318973199e+03 -999 3.05097929e-01 4.043909159e-01 -1.17730145e-01
 13 1 52831 1.0448137749742152e+05 7.3297513604316235e+04 4.8449380475075920e-12 6.1081799781996502e+04 1.0546013532093661e+05 5.5541411217793566e+03 -999 3.09700953e-01 4.037015970e-01 -1.19420324e-01
 14 1 52831 9.6220735885608927e+04 7.0901933641426775e+04 9.7478107517604486e-12 5.5852705913053294e+04 9.7377500443244644e+04 5.0269957299921898e+03 -999 3.12432143e-01 4.024326070e-01 -1.20841402e-01
 15 1 52831 8.6191853042831164e+04 6.8642926913381278e+04 1.7644032076316237e-11 5.0735817221924626e+04 8.6734929524808540e+04 4.5838779937895342e+03 -999 3.14748912e-01 4.000362173e-01 -1.22150166e-01
 16 1 52831 7.7458499578962204e+04 6.1565614627470524e+04 1.5653169556009197e-11 4.5209057930721770e+04 7.8380619429812607e+04 4.1104734764729928e+03 -999 3.17011914e-01 3.962759622e-01 -1.23223630e-01
 17 1 52831 6.9518528444647221e+04 5.5509948737916173e+04 3.0533281230928668e-11 4.0456631856585744e+04 7.0707741011996244e+04 3.7102946994574168e+03 -999 3.19170597e-01 3.921155479e-01 -1.23921237e-01
 18 1 52831 6.1966216570229662e+04 5.0650263418477392e+04 4.1539918576818746e-11 3.6001907442832897e+04 6.3011887962525405e+04 3.3609358916515930e+03 -999 3.21024732e-01 3.879116261e-01 -1.24393254e-01
 19 1 52831 5.5353054872048677e+04 4.6118629079497288e+04 5.9049126594909426e-11 3.1943312022291673e+04 5.6365043480771681e+04 3.0578863777938623e+03 -999 3.22422580e-01 3.839825713e-01 -1.24746175e-01
 20 1 52831 4.9687916071255895e+04 4.1648609081318951e+04 9.0122247313802849e-11 2.8367504487646765e+04 5.0675339385785672e+04 2.8085531878995866e+03 -999 3.23401031e-01 3.803989489e-01 -1.25037006e-01
 21 1 52831 4.3339325317170726e+04 3.8011326667649606e+04 7.6488988290897304e-11 2.5099486361097308e+04 4.4390694130504729e+04 2.5058783039579234e+03 -999 3.23956283e-01 3.771399223e-01 -1.25256300e-01
 22 1 52831 3.7533993020121568e+04 3.5301911403709899e+04 8.9653796315830343e-11 2.2315605501391619e+04 3.8484756539301765e+04 2.2508163067550513e+03 -999 3.24462035e-01 3.737752392e-01 -1.25440610e-01
 23 1 52831 3.2528306542190076e+04 3.2500197225624255e+04 9.1454128619347758e-11 1.9769403405969300e+04 3.3313316505566712e+04 2.0346738694778583e+03 -999 3.24923218e-01 3.702146979e-01 -1.25615518e-01
 24 1 52831 2.8469698930582155e+04 2.9929589966067728e+04 9.1345401067977600e-11 1.7671087155093690e+04 2.9128505417456410e+04 1.8535222457434254e+03 -999 3.25312529e-01 3.668330440e-01 -1.25756976e-01
 25 1 52831 2.5174630287378590e+04 2.7481582591519400e+04 9.4940210316704052e-11 1.5923356626746643e+04 2.5699713553483227e+04 1.6952235778635820e+03 -999 3.25661941e-01 3.634699698e-01 -1.25872886e-01
 26 1 52831 2.1959635526350965e+04 2.5596375777074943e+04 1.0308657640790330e-10 1.4454807429577286e+04 2.2484427490139398e+04 1.4976314910220397e+03 -999 3.25952685e-01 3.602776279e-01 -1.25952881e-01
 27 1 52831 1.8995528464362393e+04 2.3954421655005477e+04 1.0895873100746747e-10 1.3161161345126915e+04 1.9413636714129269e+04 1.3341570676736139e+03 -999 3.26254847e-01 3.568218166e-01 -1.26032463e-01
 28 1 52831 1.6397704458346419e+04 2.2350974598673547e+04 1.0511353871474940e-10 1.2004836964961289e+04 1.6613583474718856e+04 1.1997607699237403e+03 -999 3.26566614e-01 3.530386108e-01 -1.26115037e-01
 29 1 52831 1.4443852646095378e+04 2.1012526621823636e+04 1.0691022708051661e-10 1.1116037977532369e+04 1.4476365380340387e+04 1.0827229893095830e+03 -999 3.26851826e-01 3.494645227e-01 -1.26187743e-01
 30 1 52831 1.2966866942907096e+04 1.9849254628615363e+04 1.0303560278024093e-10 1.0391221669644636e+04 1.2866056326083895e+04 9.8295832450549608e+02 -999 3.27106229e-01 3.461009878e-01 -1.26249238e-01
 31 1 52831 1.1649904235839071e+04 1.8767782782308368e+04 1.0456714324447109e-10 9.6455248936417574e+03 1.1504900096873134e+04 8.6410302185428031e+02 -999 3.27330462e-01 3.427138842e-01 -1.26290988e-01
 32 1 52831 1.0513137549247393e+04 1.7751310976668236e+04 9.6566856473696872e-11 8.9430440962172634e+03 1.0332634098127299e+04 7.6528839634053702e+02 -999 3.27552609e-01 3.391283472e-01 -1.26328033e-01
 33 1 52831 9.4272084180638558e+03 1.6713393651565275e+04 1.0113034846307942e-10 8.2204745484234099e+03 9.2097278230065986e+03 6.8281518429307607e+02 -999 3.27773243e-01 3.350822214e-01 -1.26363383e-01
 34 1 52831 8.5697631619120475e+03 1.5821679121753357e+04 9.1507916995716492e-11 7.5874362861277041e+03 8.3536318383332964e+03 6.1700924263271816e+02 -999 3.27958724e-01 3.312033921e-01 -1.26385174e-01
 35 1 52831 7.8561028359797474e+03 1.4990016929955742e+04 8.5397016165020846e-11 6.9810807320752610e+03 7.6819776220236145e+03 5.6272899983522518e+02 -999 3.28117526e-01 3.272309155e-01 -1.26393165e-01
 36 1 52831 7.1646289767995677e+03 1.4208702366658732e+04 8.3362176221864781e-11 6.3287846035303728e+03 7.0771686956317781e+03 5.0825373247185257e+02 -999 3.28151469e-01 3.232055934e-01 -1.26355620e-01
 37 1 52831 6.5772937899547960e+03 1.3427185632963450e+04 8.2423547647836505e-11 5.6955091192914615e+03 6.6107150751647732e+03 4.6955908081181479e+02 -999 3.28121537e-01 3.187106803e-01 -1.26288344e-01
 38 1 52831 6.1637970342866056e+03 1.2742206726591454e+04 8.1313481843948663e-11 5.1562556924121000e+03 6.3343428486116309e+03 4.4706390984773685e+02 -999 3.28022272e-01 3.142066956e-01 -1.26190997e-01
 39 1 52831 5.9034507555390783e+03 1.2108768823081662e+04 7.9292241191854268e-11 4.7079556203741759e+03 6.2104829546595392e+03 4.4220318356094248e+02 -999 3.27844406e-01 3.093563000e-01 -1.26052388e-01
 40 1 52831 5.6949032345680080e+03 1.1518630883562928e+04 8.1530205723026719e-11 4.3532134673737783e+03 6.1154564096954346e+03 4.3779352116111363e+02 -999 3.27556583e-01 3.042057790e-01 -1.25864203e-01
 41 1 52831 5.5858216201388841e+03 1.0898319103509273e+04 7.8592994887427711e-11 4.1038065090088658e+03 6.1265611391483426e+03 4.1931320038548546e+02 -999 3.26984583e-01 2.975148110e-01 -1.25546554e-01
 42 1 52831 5.6303496078615535e+03 1.0345437465197771e+04 8.0462948031133328e-11 4.0423057023841002e+03 6.2649505362484924e+03 4.0913869929543188e+02 -999 3.26260576e-01 2.900780016e-01 -1.25153698e-01
 43 1 52831 5.7650531638214779e+03 9.8946131549106412e+03 8.4256178938683686e-11 4.0923079201711353e+03 6.4582377420734356e+03 4.1829384578663843e+02 -999 3.25493617e-01 2.825185875e-01 -1.24738093e-01
 44 1 52831 5.9297587942593600e+03 9.4902860157024134e+03 9.0281812540368230e-11 4.1732188573629201e+03 6.6544962290238755e+03 4.1394923301511301e+02 -999 3.24726526e-01 2.745420856e-01 -1.24319464e-01
 45 1 52831 6.0898791087469172e+03 9.1056221142013856e+03 9.2714088007240496e-11 4.2255955796915578e+03 6.8235230015381148e+03 4.1566878364782264e+02 -999 3.24032160e-01 2.659478906e-01 -1.23935909e-01
 46 1 52831 6.1868519930886023e+03 8.6490978030308761e+03 1.1107186165389423e-10 4.1967463339766518e+03 6.8927599472942557e+03 4.0319371039090987e+02 -999 3.23495741e-01 2.545842082e-01 -1.23694910e-01
 47 1 52831 6.3229705779026153e+03 8.2376294382177548e+03 1.1614244296762098e-10 4.1166216391095977e+03 6.9723643139984997e+03 3.8436566146793166e+02 -999 3.23552310e-01 2.417645773e-01 -1.23851932e-01
 48 1 52831 6.4508581789657001e+03 7.9141763487214203e+03 1.3837228330641382e-10 4.0294288031796923e+03 7.0259398195241893e+03 3.9049889978279765e+02 -999 3.24501216e-01 2.285126431e-01 -1.24626552e-01
 49 1 52831 6.5208934331943456e+03 7.6915777543914437e+03 1.5429781347689167e-10 4.0168708028323990e+03 7.0088763722637750e+03 4.4120465026284819e+02 -999 3.26511438e-01 2.143640974e-01 -1.26223000e-01
 50 1 52831 6.4631320771524515e+03 7.5156965550055065e+03 7.0825906371833651e-08 4.1839045208978923e+03 6.8414239157471784e+03 5.5207365829445394e+02 -999 3.29492781e-01 2.003206504e-01 -1.28589166e-01
 51 1 52831 6.0782650139952066e+03 7.3165483181519112e+03 6.4182493788203664e-08 4.4696086757841895e+03 6.3385832632875163e+03 8.4900407452438935e+02 -999 3.33108760e-01 1.847960329e-01 -1.32294197e-01
 52 1 52831 5.5498604644815341e+03 7.1250096874317060e+03 1.1284961840359266e-07 4.7285066380227972e+03 5.7114961439167637e+03 1.3127752142789238e+03 -999 3.35205428e-01 1.714079723e-01 -1.36072155e-01
 53 1 52831 5.0334843667336163e+03 7.0302999307521632e+03 1.9021099048684854e-07 4.8066264934692381e+03 5.1109557097156394e+03 1.9461043233598598e+03 -999 3.34667712e-01 1.599015651e-01 -1.39162745e-01
 54 1 52831 4.6457624987186155e+03 7.1478645422665240e+03 1.7341044983779412e-07 4.6427323343231392e+03 4.6357826015390756e+03 2.8036338423868538e+03 -999 3.30969584e-01 1.498820279e-01 -1.40955701e-01
 55 1 52831 4.3607584275673271e+03 7.4644927786264925e+03 1.7974070885932143e-07 4.4149373035071467e+03 4.3240773964843393e+03 4.1277413884221669e+03 -999 3.25232668e-01 1.421522503e-01 -1.41150813e-01
 56 1 52831 4.0274555952183646e+03 8.5211654977570270e+03 5.5074199196630349e-07 4.0142591915938460e+03 3.9771791826581693e+03 5.3051171649869784e+03 -999 3.14284027e-01 1.321516271e-01 -1.39403093e-01
 57 1 52831 3.7175112306121700e+03 9.2678750025986137e+03 8.1484121864382237e-07 3.4595015297724508e+03 3.6872761044296180e+03 5.2237555050872679e+03 -999 3.02546385e-01 1.232549348e-01 -1.36015490e-01
 58 1 52831 3.4779429410203279e+03 8.7339700264494550e+03 1.1056561929349594e-06 2.9215657841396123e+03 3.4227302397052872e+03 4.3528761108570052e+03 -999 2.92531850e-01 1.155394818e-01 -1.31987528e-01
 59 1 52831 3.4077463738423771e+03 7.4285283965392273e+03 1.5178460950738119e-06 2.5825401070541602e+03 3.2568702865539049e+03 3.4481478547574206e+03 -999 2.86230647e-01 1.090470506e-01 -1.28318494e-01
 60 1 52831 3.3653970950784351e+03 6.1094772287182859e+03 1.7431379838819840e-06 2.5962183553340342e+03 3.1497370509777984e+03 2.9552016601010487e+03 -999 2.84598913e-01 1.037320005e-01 -1.25723459e-01
 61 1 52831 3.1574476250495240e+03 4.9492283421151915e+03 2.2255365124162261e-06 2.8830418978302559e+03 2.9649961795877539e+03 2.5311381346678004e+03 -999 2.89752923e-01 9.861054068e-02 -1.24702920e-01
 62 1 52831 2.8336958839895315e+03 4.4461435531087172e+03 3.1763197875564781e-06 3.2179756597612213e+03 2.6910115258739229e+03 2.3347029266663549e+03 -999 3.00696169e-01 9.463047735e-02 -1.25863881e-01
 63 1 52831 2.8134074796442637e+03 4.5715033024244167e+03 4.5297546631951841e-06 3.5019911791079753e+03 2.6729873043188945e+03 2.4499546410897456e+03 -999 3.15183335e-01 9.137694566e-02 -1.28642893e-01
 64 1 52831 3.0444635541363518e+03 5.0954212803476721e+03 6.3715587970751645e-06 3.6527844720892231e+03 2.9273280907283552e+03 2.7701359491237172e+03 -999 3.31251377e-01 8.862461033e-02 -1.32470711e-01
 65 1 52831 3.1715555957754423e+03 5.5815894097295068e+03 8.2614064382271929e-06 3.5408563384309173e+03 3.1117968043380915e+03 2.9803561498859417e+03 -999 3.47353533e-01 8.629737859e-02 -1.36863611e-01
 66 1 52831 3.0520541744939733e+03 5.5879585358087197e+03 1.6067294543056565e-05 3.1619544670512000e+03 3.0905588884546332e+03 3.1310013885672379e+03 -999 3.66005764e-01 8.385761537e-02 -1.42656451e-01
 67 1 52831 2.9464331850682715e+03 5.1808221661587813e+03 1.6588644748924661e-05 2.8731847188303568e+03 3.0093811112670592e+03 3.1643829190464958e+03 -999 3.82276561e-01 8.173574632e-02 -1.48303468e-01
 68 1 52831 2.8291698371485627e+03 4.5797921191019614e+03 1.5556772224851841e-05 2.7705416474290196e+03 2.8608886288657068e+03 3.0949909578349475e+03 -999 3.96321700e-01 7.983634824e-02 -1.53636827e-01
 69 1 52831 2.5254652102916693e+03 3.8043198330012724e+03 1.4502512636036108e-05 2.6396068149713683e+03 2.5360489946172538e+03 2.9209314744889070e+03 -999 4.08751575e-01 7.814808765e-02 -1.58668467e-01
 70 1 52831 2.2869810958692701e+03 3.2535572674071650e+03 1.4606845653498713e-05 2.5390729624089427e+03 2.2748344202400049e+03 2.7036979262527525e+03 -999 4.20300054e-01 7.660965783e-02 -1.63511633e-01
 71 1 52831 2.1134422468780763e+03 2.7024947605233460e+03 1.8355779036558342e-05 2.2842369774014596e+03 2.0456680309060189e+03 2.4858595784781023e+03 -999 4.36422018e-01 7.468714018e-02 -1.70250111e-01
 72 1 52831 1.9212465642154934e+03 2.2901539267619319e+03 1.9787607687408673e-05 1.9381787498251626e+03 1.8324009574183322e+03 2.3347976009880431e+03 -999 4.54214815e-01 7.303396178e-02 -1.77414011e-01
 73 1 52831 1.8262240399513621e+03 2.2358269434790145e+03 2.0321061708334088e-05 1.7626374233801785e+03 1.7258911102813213e+03 2.5421018143020819e+03 -999 4.74082565e-01 7.169999071e-02 -1.84938803e-01
 74 1 52831 1.6625771991558590e+03 2.2292143363556975e+03 1.9907326246913302e-05 1.7494090673087060e+03 1.6068771227517136e+03 3.5213391465424879e+03 -999 4.95790445e-01 7.068448027e-02 -1.92497297e-01
 75 1 52831 1.5856958412539811e+03 2.6578435710878225e+03 1.9369242329199669e-05 1.6310314798501363e+03 1.5659904105042060e+03 5.9831244948414578e+03 -999 5.18903344e-01 6.987061487e-02 -1.99691169e-01
 76 1 52831 1.4480527971174117e+03 2.9340043762492833e+03 1.7916271354984702e-05 1.4487265537960468e+03 1.4649325943686288e+03 1.6334960576022797e+04 -999 5.52278650e-01 6.886899991e-02 -2.07841025e-01
 77 1 52831 1.3461740355753880e+03 2.6557065864196456e+03 1.6016127077772618e-05 1.2131445482703134e+03 1.3461668184481318e+03 2.0016898378071797e+04 -999 5.86593436e-01 6.816090920e-02 -2.13963869e-01
 78 1 52831 1.2425990223981053e+03 2.0322967969229958e+03 1.4186314223011835e-05 1.0224670762019564e+03 1.2342864809147982e+03 1.2876525792103352e+04 -999 6.21818615e-01 6.799157474e-02 -2.18267667e-01
 79 1 52831 1.1821716361414535e+03 1.6484497047471618e+03 1.3601894044822415e-05 8.3752499604310162e+02 1.1622030390667176e+03 1.0599530369616677e+04 -999 6.58505471e-01 6.848805293e-02 -2.21036540e-01
 80 1 52831 1.1447336717902806e+03 1.3449260243487729e+03 1.1733781896030570e-05 6.9818302918310644e+02 1.1113175644661899e+03 8.6799236939717703e+03 -999 6.95278388e-01 6.968477835e-02 -2.22312789e-01
 81 1 52831 9.8265258171194591e+02 1.0592212175640238e+03 1.1827433583593549e-05 5.0921069853199612e+02 9.5100769465985616e+02 6.3909567126454558e+03 -999 7.46996570e-01 7.244202658e-02 -2.20884919e-01
 82 1 52831 8.6649029186727989e+02 8.6497291322197702e+02 1.0487995975407855e-05 3.8001661366315130e+02 8.3542939148693245e+02 4.8112338999782987e+03 -999 7.94686416e-01 7.613790579e-02 -2.17412208e-01
 83 1 52831 7.6422848930910038e+02 7.5049901288769570e+02 8.9784843979778459e-06 2.9594522018221073e+02 7.3254785168846740e+02 3.8714455130805613e+03 -999 8.35355076e-01 7.972139834e-02 -2.12505531e-01
 84 1 52831 6.8386090594873838e+02 6.7881064435092969e+02 8.0591701916112044e-06 2.3914205366336620e+02 6.4661023920208777e+02 3.4776612534397768e+03 -999 8.69315941e-01 8.235042770e-02 -2.07126953e-01
 85 1 52831 6.2839256515357488e+02 6.2304250310206430e+02 8.1612609850166183e-06 2.0042606469265718e+02 5.8296496084417413e+02 3.1946348512923191e+03 -999 8.98692711e-01 8.350106840e-02 -2.02336956e-01
 86 1 52831 5.4175002584138770e+02 5.5084773689818451e+02 1.1344721014305901e-05 1.5887730476773251e+02 4.8373397910285485e+02 3.0192207245184413e+03 -999 9.49541951e-01 8.117058823e-02 -1.98252692e-01
 87 1 52831 4.8835893123823308e+02 5.0832910236392166e+02 1.2021203653312807e-05 1.4413116065696880e+02 4.2783391908701338e+02 2.8964301807433162e+03 -999 9.78727250e-01 7.806207651e-02 -1.97075139e-01
 88 1 52831 4.5073678655275756e+02 4.7989749745543071e+02 1.2565775302722846e-05 1.3544641481902079e+02 3.8949641376235746e+02 2.9096050158164367e+03 -999 1.00409190e+00 7.534779536e-02 -1.96288570e-01
 89 1 52831 4.2821938144106764e+02 4.4695725472231049e+02 1.3440492412678163e-05 1.2709769962500218e+02 3.7016739240971441e+02 3.0435306128711013e+03 -999 1.03430967e+00 7.236857784e-02 -1.95327042e-01
 90 1 52831 4.1313950151466315e+02 4.4762759471209120e+02 1.3251512085125803e-05 1.2208099437509362e+02 3.5716159643443336e+02 3.4283841415923785e+03 -999 1.05051071e+00 7.093722888e-02 -1.94454721e-01
 91 1 52831 3.9124501455826828e+02 4.6619351295008494e+02 1.4534603853843536e-05 1.1638651620421034e+02 3.3708632706293184e+02 4.6434519939069978e+03 -999 1.06960873e+00 6.978197681e-02 -1.93521023e-01
 92 1 52831 3.7325415576647697e+02 4.8358246206161419e+02 1.5977839324855751e-05 1.1382615933682271e+02 3.2239811089521203e+02 5.7607585711613820e+03 -999 1.08524416e+00 6.903099589e-02 -1.92863418e-01
 93 1 52831 3.5513349780599958e+02 4.8254941606911058e+02 1.7462319205907386e-05 1.1045096229025134e+02 3.0536026877533124e+02 6.1527251775132927e+03 -999 1.09853542e+00 6.845056310e-02 -1.92179588e-01
 94 1 52831 3.4365221079982007e+02 4.6964503013347576e+02 2.1247478711858492e-05 1.0640106160279734e+02 2.9577495431332602e+02 6.3265301537736977e+03 -999 1.11019588e+00 6.803736800e-02 -1.91665813e-01
 95 1 52831 3.3443238677205767e+02 4.5094294345983798e+02 7.8425777304640138e-03 1.0248189158718834e+02 2.8817320072656929e+02 6.3184860156638770e+03 -999 1.12035686e+00 6.768673953e-02 -1.91114021e-01
 96 1 52831 3.2354414234987979e+02 4.4776685562341112e+02 7.9655327274165601e-03 9.9442004167564392e+01 2.7936888858581580e+02 6.2061702953185422e+03 -999 1.13000680e+00 6.741915006e-02 -1.90575643e-01
 97 1 52831 3.0660305957273380e+02 4.3338156026866909e+02 7.4631769680037659e-03 9.6389750644406774e+01 2.6388303983001828e+02 6.9103060608021624e+03 -999 1.13987140e+00 6.725464452e-02 -1.90301344e-01
 98 1 52831 2.9205432519038374e+02 4.3084746652173470e+02 1.8421580143368792e-02 9.6305944069071174e+01 2.5006276805697817e+02 7.2494741198028914e+03 -999 1.14894563e+00 6.733917005e-02 -1.90642357e-01
 99 1 52831 2.6459544639408273e+02 4.3332335502621572e+02 8.7138777452935731e-02 1.0404732338245704e+02 2.3030524772253023e+02 8.1448392347702729e+03 -999 1.15572019e+00 6.729496520e-02 -1.90641986e-01
 100 1 52831 2.6149811381262157e+02 4.8859226849590044e+02 1.3165120923484247e-01 1.5583514531273417e+02 2.3363137187025129e+02 9.2950449718344917e+03 -999 1.16823008e+00 6.831826476e-02 -1.93364563e-01
 101 1 52831 2.1865787625759640e+02 3.9414662024756745e+02 8.6835616903350024e-02 1.0873365935877514e+02 2.4721901424300958e+02 1.1872064118607388e+04 -999 1.17364403e+00 6.815635252e-02 -1.92612526e-01
 102 1 52831 2.0375957608718284e+02 3.7756561086217056e+02 7.1278861798413889e-02 9.9093222975538808e+01 2.3693521208981147e+02 9.3479688227807655e+03 -999 1.17677763e+00 6.826772251e-02 -1.92607584e-01
 103 1 52831 1.7856196345253949e+02 3.5544790972679027e+02 6.0950280181094019e-01 9.3804882672687555e+01 2.6150890190394665e+02 1.2910820992997929e+04 -999 1.18529374e+00 6.899038442e-02 -1.94159199e-01
 104 1 52831 1.6917992671909181e+02 3.5992035297345245e+02 1.2605136745012124e+00 9.7264725837269765e+01 2.4954024202591887e+02 1.0028939989870240e+04 -999 1.18706665e+00 6.909784264e-02 -1.94176594e-01
 105 1 52831 1.6813861733564949e+02 3.7913387474870279e+02 8.9423800225397088e-01 1.0409953095826566e+02 2.6290049282080884e+02 1.3878298606921115e+04 -999 1.18750920e+00 6.908706900e-02 -1.93798135e-01
 106 1 52831 1.7334218315964424e+02 3.9166040356842171e+02 6.3258296876411646e-01 9.9917817030389784e+01 4.3596654975866466e+02 1.5656029692813581e+04 -999 1.18882380e+00 6.928667302e-02 -1.93932167e-01
 107 1 52831 1.6999645168763038e+02 3.8974715073027670e+02 7.0357576985945736e-01 1.0019300210592745e+02 4.2258288556793576e+02 1.4057983270485513e+04 -999 1.19260349e+00 6.998445833e-02 -1.95725249e-01
 108 1 52831 1.7958778889056657e+02 3.8892769517098992e+02 5.3440627816786646e-01 1.0121880200832126e+02 4.0092254857921353e+02 1.3934446626680881e+04 -999 1.19256296e+00 7.018537269e-02 -1.95805089e-01
 109 1 52831 1.8729745207079895e+02 3.9958470092879458e+02 5.1955136028715498e-01 1.0291490897264502e+02 4.1110870560522613e+02 1.4131854790743135e+04 -999 1.19029571e+00 7.003540959e-02 -1.94795252e-01
 110 1 52831 1.8963370920942586e+02 4.0645504306480751e+02 6.7856408077343167e-01 1.0494604615320007e+02 4.1124139463577643e+02 1.2902679484440088e+04 -999 1.18827438e+00 6.999264103e-02 -1.94022196e-01
 111 1 52831 1.9283308948644591e+02 4.0913705435746050e+02 5.2912839411056412e-01 1.0554456887371612e+02 4.8687764261871268e+02 1.4206125434831860e+04 -999 1.18355228e+00 6.936419376e-02 -1.91763191e-01
 112 1 52831 2.0016200891015512e+02 4.0868696092806528e+02 3.9950142081115819e-01 1.1140213719247649e+02 5.1440210028975571e+02 1.4060892706231753e+04 -999 1.17895916e+00 6.883401439e-02 -1.89856950e-01
 113 1 52831 2.0755478969690219e+02 4.1205514796598789e+02 3.4371896115096656e-01 1.1708651720007103e+02 5.4976629583204010e+02 1.3615388219889384e+04 -999 1.17583601e+00 6.863303042e-02 -1.88658566e-01
 114 1 52831 2.1044655965545579e+02 4.1050373031544154e+02 3.3448900321508584e-01 1.2270015509084313e+02 5.4984898687941836e+02 1.3301178408743273e+04 -999 1.17235918e+00 6.837661751e-02 -1.87477207e-01
 115 1 52831 2.1248608046194445e+02 4.0335059269196910e+02 2.4621975413223962e-01 1.3138344930123219e+02 5.5369467582356117e+02 1.3490962375944282e+04 -999 1.16792127e+00 6.797432017e-02 -1.85940353e-01
 116 1 52831 2.1350221066179390e+02 3.9593746308757181e+02 1.9902976623561389e-01 1.2453947832166810e+02 5.9932666054699587e+02 1.2691361366362291e+04 -999 1.16336246e+00 6.751765514e-02 -1.84295985e-01
 117 1 52831 2.1914890368936125e+02 3.8484053870401351e+02 1.4876191744829514e-01 1.2540120145859156e+02 5.8850280561535794e+02 1.2475333172965657e+04 -999 1.15929561e+00 6.714172372e-02 -1.82918559e-01
 118 1 52831 2.2238283740099598e+02 3.6764628771030311e+02 1.1303525482514577e-01 1.2406262101368191e+02 5.8934904145027883e+02 1.1290307816898641e+04 -999 1.15566269e+00 6.677525504e-02 -1.81654080e-01
 119 1 52831 2.2581419438626321e+02 3.5831391186943250e+02 9.9761404723408581e-02 1.2491203709786471e+02 5.8655031550511330e+02 1.0916493934825841e+04 -999 1.15218831e+00 6.649179922e-02 -1.80643889e-01
 120 1 52831 2.2982991838337614e+02 3.5558835036758319e+02 8.4466040206409590e-02 1.2006450306094855e+02 5.7850885500464210e+02 9.8645216038230064e+03 -999 1.14687043e+00 6.592160323e-02 -1.78735576e-01
 121 1 52831 2.3096385052399037e+02 3.4538027888805044e+02 7.3908996813578334e-02 1.1484250869080137e+02 5.6592548948512353e+02 9.1108547985199330e+03 -999 1.14258315e+00 6.553218283e-02 -1.77323053e-01
 122 1 52831 2.2972807505340018e+02 3.3360704204613018e+02 6.3642675215043576e-02 1.0736400197120206e+02 6.2203105152095975e+02 8.4809767664078881e+03 -999 1.13679305e+00 6.497561611e-02 -1.75173416e-01
 123 1 52831 2.3103605629049730e+02 3.2350974808639563e+02 5.8097930773190483e-02 1.0789773685587011e+02 6.2278696566830149e+02 8.0434153877551626e+03 -999 1.13331214e+00 6.462698114e-02 -1.74052024e-01
 124 1 52831 2.3143727280475716e+02 3.2342063106138551e+02 1.5314269871521222e+00 1.0837565054942232e+02 6.3907398822487562e+02 7.5086376866888104e+03 -999 1.12885339e+00 6.418435493e-02 -1.72606068e-01
 125 1 52831 2.3201023454630990e+02 3.2230725073082488e+02 1.2431011296294940e+00 1.0393072663152444e+02 6.0386611257725258e+02 6.6292335093788715e+03 -999 1.12425650e+00 6.364054180e-02 -1.70926860e-01
 126 1 52831 2.3091435786572768e+02 3.1052658177641268e+02 1.2429916398585590e+00 9.6116390013090012e+01 6.1112091082038023e+02 6.5738769194498072e+03 -999 1.12082446e+00 6.336655273e-02 -1.69900254e-01
 127 1 52831 2.2407323702361688e+02 3.0228570041007117e+02 1.1415519716771454e+00 9.1494659073935452e+01 6.0628721592783450e+02 6.0803886123926704e+03 -999 1.11588872e+00 6.288873434e-02 -1.68192879e-01
 128 1 52831 2.2104712823395133e+02 2.9964762797605835e+02 9.9220328237817634e-01 9.1322345299581059e+01 5.9757334094409225e+02 5.5189942043802548e+03 -999 1.11222619e+00 6.251021897e-02 -1.66991985e-01
 129 1 52831 2.1865294008245246e+02 2.8902165726416996e+02 8.1041210680125864e-01 9.5097372228777502e+01 5.9848812175485659e+02 5.1224310115313128e+03 -999 1.10896337e+00 6.221765101e-02 -1.66068543e-01
 130 1 52831 2.1625991573663271e+02 2.8895250103039632e+02 7.5648042359776690e-01 9.5953733536666235e+01 5.5499851069694932e+02 4.7430252320848722e+03 -999 1.10473097e+00 6.168934234e-02 -1.64541389e-01
 131 1 52831 2.1440161755126633e+02 2.7675277702462421e+02 7.2275401992460875e-01 9.0645084363004727e+01 5.7902506681281693e+02 4.4998418842669944e+03 -999 1.10248902e+00 6.149745155e-02 -1.63935855e-01
 132 1 52831 2.0537353739694868e+02 2.8068796441385132e+02 6.4473873186790087e-01 8.3821962618414943e+01 5.7641388032007080e+02 4.1148461430357538e+03 -999 1.09832388e+00 6.107253679e-02 -1.62546999e-01
 133 1 52831 1.9924018304582532e+02 2.7601698399670994e+02 6.2765036171398370e-01 8.1213147094754930e+01 5.6781527185700725e+02 4.0828608042164815e+03 -999 1.09536825e+00 6.077730629e-02 -1.61632688e-01
 134 1 52831 1.9503441833779584e+02 2.7787746637884709e+02 5.3304869693609247e-01 8.3775701184457560e+01 5.5940287881910206e+02 3.8199613260259871e+03 -999 1.09319530e+00 6.062849455e-02 -1.61147940e-01
 135 1 52831 1.8747898250140742e+02 2.6677337938487210e+02 4.7937099205726375e-01 8.8554376558133256e+01 5.3949396098968316e+02 3.4254450003432135e+03 -999 1.08995924e+00 6.021231233e-02 -1.59961399e-01
 136 1 52831 1.8657877600560926e+02 2.5256433452626013e+02 4.3921200636212082e-01 8.2075389526090746e+01 5.5546575921119666e+02 3.3093548256602598e+03 -999 1.08715986e+00 5.993857176e-02 -1.59241210e-01
 137 1 52831 1.8264947377518021e+02 2.5975333428086481e+02 3.8953290556690368e-01 7.5847622981367607e+01 5.4747070479571892e+02 3.3139924971646733e+03 -999 1.08443055e+00 5.971185878e-02 -1.58561222e-01
 138 1 52831 1.7739604829571152e+02 2.5116176261290673e+02 4.1759091500633611e-01 7.2527582187896797e+01 5.4495438950019934e+02 3.1636144595716114e+03 -999 1.08191775e+00 5.944391050e-02 -1.57826043e-01
 139 1 52831 1.7318463600355901e+02 2.4745835875997832e+02 7.2981166902211270e-01 7.4511789316546341e+01 5.5587980484187847e+02 2.9314604760878133e+03 -999 1.07974600e+00 5.925535684e-02 -1.57338936e-01
 140 1 52831 1.6413573211130856e+02 2.3901918075126201e+02 5.1092906013290562e-01 8.0458529170148239e+01 4.9771052652678827e+02 2.6861248521898146e+03 -999 1.07772902e+00 5.901168342e-02 -1.56701721e-01
 141 1 52831 1.6641381599284435e+02 2.3658716370281115e+02 4.6204549451061444e-01 7.3067519772642029e+01 5.0094402845934451e+02 2.7581579295072183e+03 -999 1.07436790e+00 5.860744947e-02 -1.55748543e-01
 142 1 52831 1.6477987309719538e+02 2.2655476726724518e+02 4.6440138760575844e-01 6.9500563790887341e+01 5.1224993713819993e+02 2.4443286331285644e+03 -999 1.07270768e+00 5.843063562e-02 -1.55309880e-01