TITLE = "005.02 ALPHA 3.90 GRIDLEVEL 5"

VARIABLES = "ITERATION"  "GRID_LEVEL"  "GRID_SIZE"  "CONTINUITY"  "MOMENTUMX"  "MOMENTUMY"  "MOMENTUMZ"  "ENERGY"  "TURB1"  "TURB2"  "CL_TOT"  "CD_TOT"  "CM_TOT"

DATASETAUXDATA ParticipantID   = "005"
DATASETAUXDATA SubmissionDate  = "10-31-2024"
DATASETAUXDATA Name            = "Jeffrey A. Housman"
DATASETAUXDATA Email           = "jeffrey.a.housman@nasa.gov"
DATASETAUXDATA Institution     = "NASA Ames Research Center"
DATASETAUXDATA SolverName      = "LAVA Curvilinear"
DATASETAUXDATA BasicAlgorithm  = "RANS"
DATASETAUXDATA TurbulenceModel = "SA-RC-comp-neg"
DATASETAUXDATA GridId          = "Multiblock"
DATASETAUXDATA Discretization  = "Finite difference"
DATASETAUXDATA Order           = "2"
DATASETAUXDATA DistanceCalc    = "Exact"
DATASETAUXDATA Notes           = " "

ZONE T = "005.02 - Alpha 3.90 - Grid Level 5"
AUXDATA Tstatic         = "271.0"
AUXDATA Deltat          = "-999"
AUXDATA GridFileName    = "ONERA-OAT15A_230mmChord_780mmSpan_upZ_2024_06_25-Structured_23mm_Level-5.x"
AUXDATA Misc            = " "
 0 5 752103 5.0904761020839412e+05 1.6096041462664756e+06 7.6806373906716276e-14 5.1860536420749675e+05 5.4586449282375118e+05 2.8748456554833925e+06 -999 1.96249600e-02 9.102781346e-01 -1.36235612e-02
 1 5 752103 7.5149605443247315e+05 1.2016782385039774e+06 6.5440784780349280e-14 3.8828139877543278e+05 7.3531501933859987e+05 1.8627971394208812e+06 -999 6.11329254e-02 8.331009094e-01 -2.93737135e-02
 2 5 752103 9.1018942517241649e+05 1.0245351322168089e+06 5.7086967202310330e-14 4.2446935630681488e+05 8.7605940694546257e+05 1.2119312652799587e+06 -999 1.11674384e-01 7.889655443e-01 -4.81420693e-02
 3 5 752103 1.0562412329701292e+06 9.1449038784690970e+05 5.0724588555570329e-14 4.9855726789610833e+05 1.0145978833700110e+06 7.9269480624904193e+05 -999 1.57611729e-01 7.602749033e-01 -6.57826743e-02
 4 5 752103 1.1831883325050927e+06 8.3706875149980269e+05 4.5772888103162920e-14 5.8838848661250272e+05 1.1473150673782581e+06 5.1111264595107856e+05 -999 1.97922551e-01 7.411100200e-01 -7.97690483e-02
 5 5 752103 1.3137002588651269e+06 8.3672571611105837e+05 4.1889902034145223e-14 6.8464343329314329e+05 1.3035117623763185e+06 3.2886181289540796e+05 -999 2.29684343e-01 7.264185860e-01 -9.06658011e-02
 6 5 752103 1.2013162618738657e+06 8.6097084494150616e+05 3.8963326796116513e-14 7.1813419804064964e+05 1.1937688414715379e+06 1.7488585694969539e+05 -999 2.51910439e-01 7.060722236e-01 -9.89711299e-02
 7 5 752103 1.2321400284635965e+06 8.6663182047137863e+05 3.6352649390023687e-14 7.4824015580348531e+05 1.2214740280294949e+06 1.2254355091918485e+05 -999 2.69669235e-01 6.835593258e-01 -1.06113776e-01
 8 5 752103 1.2939379307512210e+06 8.4667597525007324e+05 3.4426973003890353e-14 7.6789612929789955e+05 1.3026779724322082e+06 1.0083434108228501e+05 -999 2.83084879e-01 6.612103057e-01 -1.11346300e-01
 9 5 752103 1.5619796737044542e+06 9.2097064393854304e+05 3.2810834141048162e-14 8.4433300661972479e+05 1.6320832694833500e+06 8.8918599040525354e+04 -999 2.95726222e-01 6.363218367e-01 -1.15898716e-01
 10 5 752103 1.4606440454616453e+06 7.7008753845845885e+05 3.1889261040400556e-14 8.1346490689982648e+05 1.5047245773691148e+06 7.9780272733976788e+04 -999 3.02514787e-01 6.215031280e-01 -1.18276349e-01
 11 5 752103 1.3843601166197157e+06 7.9261244265696499e+05 3.0835577991259679e-14 8.0472250757480809e+05 1.4161701309322310e+06 7.1991731218334215e+04 -999 3.09690899e-01 6.050090698e-01 -1.20833950e-01
 12 5 752103 1.2850452454392479e+06 7.7133786980638036e+05 2.9818426467261504e-14 7.7625468657901045e+05 1.3012597825573392e+06 6.6214688111747906e+04 -999 3.15957866e-01 5.895254267e-01 -1.22941606e-01
 13 5 752103 1.4328582419838014e+06 8.1790484006026876e+05 2.8855576059389612e-14 8.1221788383316947e+05 1.4811195915579547e+06 6.1800429163942463e+04 -999 3.21990800e-01 5.732144280e-01 -1.24946888e-01
 14 5 752103 1.3501014456452103e+06 7.0297099547146750e+05 2.8291334460548818e-14 7.7651560746223270e+05 1.3781464874091840e+06 5.7828202442454109e+04 -999 3.25339479e-01 5.630675740e-01 -1.26124711e-01
 15 5 752103 1.5482108920395514e+06 8.4117041112084046e+05 2.7860899646450802e-14 8.1182675297822745e+05 1.6422300557925464e+06 5.4506130544002866e+04 -999 3.28484716e-01 5.527534246e-01 -1.27335061e-01
 16 5 752103 1.3025022478992394e+06 7.3491519445673074e+05 2.7312541210965851e-14 7.4314521805722732e+05 1.3664693247906084e+06 5.0064215292536952e+04 -999 3.30810382e-01 5.438498181e-01 -1.28269374e-01
 17 5 752103 1.2044182578561581e+06 6.8682766585602972e+05 2.6742289708007155e-14 7.1766410132714221e+05 1.2236794002802586e+06 4.6577601056046711e+04 -999 3.33161811e-01 5.338342582e-01 -1.29172112e-01
 18 5 752103 1.1794877985730004e+06 6.4680499498244654e+05 2.6344307359791096e-14 6.9959716316260432e+05 1.1906497939283124e+06 4.3807488391198000e+04 -999 3.34994174e-01 5.251391252e-01 -1.29790927e-01
 19 5 752103 1.3105408676092157e+06 6.8988177220606687e+05 2.6029979018356425e-14 7.0459096250067197e+05 1.3721701293606053e+06 4.1438156802440870e+04 -999 3.36545851e-01 5.172481327e-01 -1.30230913e-01
 20 5 752103 1.2957162878174493e+06 6.3281037819902087e+05 2.5813093656287479e-14 7.0658860666825087e+05 1.3429129143987871e+06 3.9322429858213829e+04 -999 3.37687276e-01 5.109887903e-01 -1.30513348e-01
 21 5 752103 1.1794274629047208e+06 6.5483737994960847e+05 2.5441916502918333e-14 6.6745498002477747e+05 1.2288303191994464e+06 3.6382531961831162e+04 -999 3.38618051e-01 5.048905691e-01 -1.30723951e-01
 22 5 752103 1.0506418955243905e+06 5.8279854211083171e+05 2.5003787934619272e-14 6.2288007961458352e+05 1.0737570842758166e+06 3.4068912906867736e+04 -999 3.39643393e-01 4.976078679e-01 -1.30948755e-01
 23 5 752103 1.0558589159333680e+06 5.9868510627841612e+05 2.4616412417329383e-14 6.1062449919410143e+05 1.0793726457939281e+06 3.2170716106581644e+04 -999 3.40543937e-01 4.906079443e-01 -1.31146166e-01
 24 5 752103 1.1932262536452753e+06 6.3003291183276242e+05 2.4341670435027497e-14 6.2799842204073549e+05 1.2511879949019204e+06 3.0624490763967900e+04 -999 3.41346973e-01 4.838617002e-01 -1.31329794e-01
 25 5 752103 1.1365654582171356e+06 5.4445637044066819e+05 2.4115204070636490e-14 6.0401253828022664e+05 1.1885706347375279e+06 2.9093849839143710e+04 -999 3.41824797e-01 4.795081140e-01 -1.31445367e-01
 26 5 752103 1.0186628080647425e+06 5.3544072331635375e+05 2.3728509987179912e-14 5.7195143665651686e+05 1.0624881794089114e+06 2.7050779973484790e+04 -999 3.42278621e-01 4.745838360e-01 -1.31551866e-01
 27 5 752103 9.0945551407090365e+05 5.1372911350555031e+05 2.3292948349263875e-14 5.3512635631877265e+05 9.3242648520341283e+05 2.5461245872986172e+04 -999 3.42780057e-01 4.689726409e-01 -1.31673066e-01
 28 5 752103 9.1526383137643256e+05 5.1235286025216233e+05 2.2925315169713125e-14 5.2117264792028861e+05 9.3584811349275138e+05 2.4146761465087955e+04 -999 3.43268861e-01 4.634014637e-01 -1.31792944e-01
 29 5 752103 1.0352019158262684e+06 5.4493502124823874e+05 2.2687148026039707e-14 5.3238862611878873e+05 1.0856899785795822e+06 2.3026165005968563e+04 -999 3.43724369e-01 4.581231928e-01 -1.31902514e-01
 30 5 752103 1.0019645569619274e+06 4.7618572588623402e+05 2.2576034133254347e-14 5.1859567725565389e+05 1.0484523041976265e+06 2.1930884508885585e+04 -999 3.44020718e-01 4.546158264e-01 -1.31971628e-01
 31 5 752103 8.8881045807538822e+05 4.7425429102863441e+05 2.2341084044218124e-14 4.8616074103990436e+05 9.3295263482851291e+05 2.0427777466553976e+04 -999 3.44311660e-01 4.506421203e-01 -1.32032082e-01
 32 5 752103 7.7642367745247134e+05 4.3843696792340674e+05 2.2098925290133322e-14 4.4999103319215192e+05 7.9923126666111173e+05 1.9267595538807574e+04 -999 3.44647247e-01 4.460692209e-01 -1.32102233e-01
 33 5 752103 7.6980926886116154e+05 4.2983940851884644e+05 2.1932031897337684e-14 4.3362390770004893e+05 7.8327194963161752e+05 1.8323990153290797e+04 -999 3.44986909e-01 4.414325752e-01 -1.32173748e-01
 34 5 752103 8.4506565017387178e+05 4.4988037884658802e+05 2.1893799789168895e-14 4.3312535593259282e+05 8.8500487453207735e+05 1.7486729790260433e+04 -999 3.45267683e-01 4.375795425e-01 -1.32233517e-01
 35 5 752103 9.6060260282204079e+05 5.4157560059725738e+05 2.1910229449052227e-14 4.5096650527101709e+05 1.0318436183420871e+06 1.6735038495172601e+04 -999 3.45529158e-01 4.339724596e-01 -1.32289949e-01
 36 5 752103 8.0025229276935186e+05 4.6609834029218787e+05 2.1725422947086202e-14 4.0971196711405850e+05 8.6296490123478696e+05 1.5597874134979780e+04 -999 3.45727107e-01 4.308565427e-01 -1.32328420e-01
 37 5 752103 6.6266975656983745e+05 3.8592209556948888e+05 2.1497687956423339e-14 3.7328095129238896e+05 6.9195779079976806e+05 1.4719172813464147e+04 -999 3.45968378e-01 4.271148865e-01 -1.32376473e-01
 38 5 752103 6.3354108604469069e+05 3.6419798137097905e+05 2.1289309642402524e-14 3.5355577525110409e+05 6.4331250503958715e+05 1.3995177271178221e+04 -999 3.46218796e-01 4.232928335e-01 -1.32427716e-01
 39 5 752103 6.9962050057615025e+05 3.7695125864754483e+05 2.1167484426888773e-14 3.5155490784437460e+05 7.2746781430122384e+05 1.3370468963314024e+04 -999 3.46444786e-01 4.198887372e-01 -1.32475068e-01
 40 5 752103 7.6280348810956208e+05 3.9435161320225860e+05 2.1111862969620187e-14 3.5743935281021643e+05 8.0573221543831413e+05 1.2800063819776320e+04 -999 3.46639903e-01 4.169760654e-01 -1.32516760e-01
 41 5 752103 6.4869263611554739e+05 3.6270040876041056e+05 2.0877104106905157e-14 3.2780590213187388e+05 6.9454709974132187e+05 1.1904527972215630e+04 -999 3.46804939e-01 4.142316645e-01 -1.32548741e-01
 42 5 752103 5.3507388008010422e+05 3.1557517995610961e+05 2.0582633076303999e-14 2.9738646892120159e+05 5.6118644661732472e+05 1.1185556740644777e+04 -999 3.47002365e-01 4.110219034e-01 -1.32588017e-01
 43 5 752103 5.0003830385103781e+05 2.8856635869039642e+05 2.0284339084220076e-14 2.7681669894005609e+05 5.0584919102303183e+05 1.0578281933667084e+04 -999 3.47225338e-01 4.074811515e-01 -1.32633468e-01
 44 5 752103 5.4341055044425908e+05 2.9452194190525165e+05 2.0080435228912950e-14 2.7175912206563575e+05 5.6082097644868563e+05 1.0057234128012060e+04 -999 3.47422747e-01 4.044160735e-01 -1.32674611e-01
 45 5 752103 5.9812748393110477e+05 3.3044158037980559e+05 1.9954263195002126e-14 2.7336533856470889e+05 6.3709212783476233e+05 9.5886294029245764e+03 -999 3.47587774e-01 4.018937166e-01 -1.32709654e-01
 46 5 752103 5.0618978482910851e+05 2.8027818314779131e+05 1.9705086387113118e-14 2.5040340788064955e+05 5.4388339751247736e+05 8.9123235333249031e+03 -999 3.47737888e-01 3.993870920e-01 -1.32738439e-01
 47 5 752103 4.1576444646807818e+05 2.4671091554475456e+05 1.9413714915203804e-14 2.2730157638097362e+05 4.3898264365019096e+05 8.3420054247188327e+03 -999 3.47914002e-01 3.965192900e-01 -1.32772992e-01
 48 5 752103 3.7884305282122444e+05 2.2532171905429580e+05 1.9130043338216668e-14 2.0966736202814878e+05 3.8480507467460487e+05 7.8511144897605336e+03 -999 3.48111515e-01 3.933840850e-01 -1.32812628e-01
 49 5 752103 4.0314755150453345e+05 2.2479421488987151e+05 1.8954545345204304e-14 2.0283797344992141e+05 4.1265960312983656e+05 7.4287269969681493e+03 -999 3.48296723e-01 3.905130481e-01 -1.32850688e-01
 50 5 752103 4.3965741258834483e+05 2.3871498596076932e+05 1.8882294956638829e-14 2.0190781708209560e+05 4.6131766817677376e+05 7.0514898650011373e+03 -999 3.48459449e-01 3.880327548e-01 -1.32885006e-01
 51 5 752103 3.7731681325368420e+05 2.1154147248573904e+05 1.8669231460543671e-14 1.8516293120353034e+05 4.0271205944999703e+05 6.5245852285036262e+03 -999 3.48598331e-01 3.857683186e-01 -1.32911814e-01
 52 5 752103 3.0827401506027416e+05 1.8660704887041941e+05 1.8403086691496138e-14 1.6669928084270342e+05 3.2744438655660092e+05 6.0783079157061566e+03 -999 3.48767537e-01 3.830673606e-01 -1.32945331e-01
 53 5 752103 2.7241303960622742e+05 1.6840759141640214e+05 1.8121842863883542e-14 1.5091530172008721e+05 2.7936813786888850e+05 5.6635152140608152e+03 -999 3.48962051e-01 3.800308515e-01 -1.32985058e-01
 54 5 752103 2.8031267652784451e+05 1.6447699660077647e+05 1.7924150385986705e-14 1.4269332265820625e+05 2.8658821117813117e+05 5.3089810973344038e+03 -999 3.49146750e-01 3.772056363e-01 -1.33024273e-01
 55 5 752103 2.9853008339469205e+05 1.7113710052355641e+05 1.7815289590424386e-14 1.3894852746097234e+05 3.1185731252809509e+05 4.9944476723206171e+03 -999 3.49311528e-01 3.747175520e-01 -1.33060939e-01
 56 5 752103 2.5703822165661570e+05 1.5302935036486495e+05 1.7627264217819506e-14 1.2768540331335766e+05 2.7337065887597582e+05 4.5804652583350662e+03 -999 3.49450751e-01 3.724793675e-01 -1.33090393e-01
 57 5 752103 2.1046665522810194e+05 1.3621019101949298e+05 1.7388135792794308e-14 1.1499546405136051e+05 2.2445216679895751e+05 4.2170911530542216e+03 -999 3.49618707e-01 3.698303249e-01 -1.33126922e-01
 58 5 752103 1.8184142395059596e+05 1.2287725477711651e+05 1.7132212967902516e-14 1.0314413249399874e+05 1.8901250422623719e+05 3.8905960416587827e+03 -999 3.49815011e-01 3.667931518e-01 -1.33171254e-01
 59 5 752103 1.7963215763414116e+05 1.1760334341702187e+05 1.6940986441072842e-14 9.5617338639901835e+04 1.8475944813633731e+05 3.6112853698965769e+03 -999 3.50006967e-01 3.638719252e-01 -1.33217041e-01
 60 5 752103 1.8385463324007773e+05 1.1671619275381265e+05 1.6850741741537911e-14 9.0945908434965153e+04 1.9115120280665660e+05 3.3731544575168832e+03 -999 3.50180375e-01 3.612554496e-01 -1.33261426e-01
 61 5 752103 1.5950054519689319e+05 1.0734776221290826e+05 1.6666406427104642e-14 8.4132765298420840e+04 1.6862545523628037e+05 3.0572266328906530e+03 -999 3.50320645e-01 3.590206306e-01 -1.33295783e-01
 62 5 752103 1.3094258427027799e+05 9.7935146205837707e+04 1.6426974001063581e-14 7.6174673768027787e+04 1.3939822682108841e+05 2.7828448361851215e+03 -999 3.50492830e-01 3.563213433e-01 -1.33338934e-01
 63 5 752103 1.1022872866704124e+05 8.9535632764185866e+04 1.6158590800415202e-14 6.8160123645637781e+04 1.1542549218128684e+05 2.5421419943409492e+03 -999 3.50698016e-01 3.531529000e-01 -1.33392348e-01
 64 5 752103 1.0360997906041522e+05 8.4397133851120088e+04 1.5937420435691437e-14 6.2312980969874792e+04 1.0717741580793096e+05 2.3399816236255188e+03 -999 3.50900770e-01 3.500539660e-01 -1.33448614e-01
 65 5 752103 1.0070319599866822e+05 8.1070389357094900e+04 1.5790077483595051e-14 5.8119171592624210e+04 1.0425675576407849e+05 2.1692902524224119e+03 -999 3.51083981e-01 3.472553377e-01 -1.33504103e-01
 66 5 752103 8.7999240466308736e+04 7.6274365525971545e+04 1.5597056732881882e-14 5.3662744070443245e+04 9.2247625359268452e+04 1.9457523680215911e+03 -999 3.51228322e-01 3.448847421e-01 -1.33543301e-01
 67 5 752103 7.2828416496536956e+04 7.1098992925178012e+04 1.5359812004486053e-14 4.8396863311726527e+04 7.6694224409068047e+04 1.7587962390589989e+03 -999 3.51405353e-01 3.419938524e-01 -1.33591967e-01
 68 5 752103 6.0285489088143258e+04 6.5908015751918487e+04 1.5065657766088316e-14 4.2715169110925141e+04 6.2643124685329007e+04 1.6017165934518887e+03 -999 3.51617799e-01 3.385249720e-01 -1.33652268e-01
 69 5 752103 5.3897043924221703e+04 6.1864515408705585e+04 1.4804840123716655e-14 3.8054623303851477e+04 5.5299480552422123e+04 1.4741294523656729e+03 -999 3.51826168e-01 3.350837855e-01 -1.33715626e-01
 70 5 752103 4.9665491237151851e+04 5.8685619896108641e+04 1.4607716507012647e-14 3.4444312366169223e+04 5.0661251145170216e+04 1.3706570384679767e+03 -999 3.52012025e-01 3.319344203e-01 -1.33778342e-01
 71 5 752103 4.3589496355253556e+04 5.5620988451782003e+04 1.4390106581556305e-14 3.1403148527794747e+04 4.4694743774625829e+04 1.2360396766878234e+03 -999 3.52143810e-01 3.291219120e-01 -1.33809442e-01
 72 5 752103 3.6473250355451833e+04 5.2149724406207570e+04 1.4129973870680582e-14 2.7896326262571172e+04 3.7328477484467905e+04 1.1342631764780767e+03 -999 3.52299878e-01 3.256132711e-01 -1.33843791e-01
 73 5 752103 3.0220016624926837e+04 4.8452489818249851e+04 1.3803783889029149e-14 2.4173508410495262e+04 3.0563084842076110e+04 1.0981988108820126e+03 -999 3.52476277e-01 3.213093811e-01 -1.33879931e-01
 74 5 752103 2.6364776573168292e+04 4.5337750165021345e+04 1.3481786696338344e-14 2.1179894410481538e+04 2.6486606148400515e+04 1.0868050545764422e+03 -999 3.52631910e-01 3.169846720e-01 -1.33910649e-01
 75 5 752103 2.3784745752218521e+04 4.2827554715093604e+04 1.3212610727273222e-14 1.8965648151442390e+04 2.3909532982466124e+04 1.1174910063188886e+03 -999 3.52755693e-01 3.129050104e-01 -1.33936283e-01
 76 5 752103 2.0986513282001029e+04 4.0412956573029907e+04 1.2960265406637266e-14 1.7140973327083731e+04 2.1360976678987405e+04 1.1899802417928734e+03 -999 3.52780398e-01 3.085839556e-01 -1.33883081e-01
 77 5 752103 1.8173130414910236e+04 3.7698999346174242e+04 1.2638991449936822e-14 1.5356796559651926e+04 1.8847882628112206e+04 1.4195767225035556e+03 -999 3.52802265e-01 3.029097211e-01 -1.33798991e-01
 78 5 752103 1.6364438692073074e+04 3.4980135468837005e+04 1.2272748671916063e-14 1.4052853848794801e+04 1.7435276296231270e+04 1.9452828181114992e+03 -999 3.52832063e-01 2.957654767e-01 -1.33682848e-01
 79 5 752103 1.5898194854969008e+04 3.2884699074580669e+04 1.1940011121385942e-14 1.3544731099678513e+04 1.7381780801182507e+04 2.7900438079025762e+03 -999 3.52893124e-01 2.884414952e-01 -1.33570055e-01
 80 5 752103 1.6018120804622344e+04 3.1327400762580306e+04 1.1668207725133325e-14 1.3446637572894364e+04 1.7860956143770203e+04 4.1293076113620264e+03 -999 3.53012383e-01 2.811865674e-01 -1.33484241e-01
 81 5 752103 1.5378184950763392e+04 2.9060722638780258e+04 1.1338456137379550e-14 1.2462695905084876e+04 1.7555446014823607e+04 9.3584715409661512e+03 -999 3.53321844e-01 2.715831131e-01 -1.33395151e-01
 82 5 752103 1.5380764053411731e+04 2.6880176335339947e+04 1.1113659143069441e-14 1.1816011001314895e+04 1.7807932110312559e+04 2.5428708639943259e+04 -999 3.53899583e-01 2.575730213e-01 -1.33424577e-01
 83 5 752103 1.6005369576830592e+04 2.6420231868632945e+04 1.1094117041000847e-14 1.1767192023532136e+04 1.8449335608897982e+04 5.3303897103506155e+04 -999 3.54631166e-01 2.405385460e-01 -1.33805114e-01
 84 5 752103 1.6731316378780062e+04 2.7462152641884437e+04 1.1053044134759092e-14 1.2001109407200740e+04 1.9103380230758019e+04 1.1177191852811404e+05 -999 3.55137242e-01 2.231281147e-01 -1.34651808e-01
 85 5 752103 1.7600660706411516e+04 3.2582242604402381e+04 1.0997987003489643e-14 1.2361728611083579e+04 2.2190460823278230e+04 1.7949972082102255e+05 -999 3.55010069e-01 2.048348958e-01 -1.35978752e-01
 86 5 752103 1.5409085797346690e+04 2.2370141570039621e+04 2.6306013586530403e-13 1.1282105266934201e+04 1.6751747519650555e+04 3.6050532201209693e+05 -999 3.53319015e-01 1.750760622e-01 -1.38773986e-01
 87 5 752103 1.3813555989757333e+04 2.1446838956581574e+04 3.8669218255835092e-13 1.0752569795986568e+04 1.4995506404514468e+04 2.6984680802143697e+05 -999 3.49384533e-01 1.508307707e-01 -1.40752375e-01
 88 5 752103 1.3098720720187084e+04 3.7039168404986354e+04 3.9506056991547210e-13 1.0220601717316949e+04 1.6817775743223967e+04 2.2328288731999954e+05 -999 3.47202024e-01 1.434084501e-01 -1.40802825e-01
 89 5 752103 1.2864456909642511e+04 4.3923714688662731e+04 3.9612040075614240e-13 9.4479309780493895e+03 1.8818575754970836e+04 1.3334324095875706e+05 -999 3.46544282e-01 1.415636650e-01 -1.40719707e-01
 90 5 752103 1.2727936308501234e+04 4.7641657078169941e+04 3.9706804909699481e-13 9.4494320201519349e+03 2.0421318098922813e+04 6.6612888814741324e+04 -999 3.46107878e-01 1.403502808e-01 -1.40650964e-01
 91 5 752103 1.1270571443840974e+04 2.1798673736798020e+04 3.2912532490277448e-13 8.0546628764292655e+03 1.2124821133087553e+04 2.6079147694444127e+05 -999 3.42016442e-01 1.292154618e-01 -1.39959647e-01
 92 5 752103 1.0318417822235891e+04 1.8784357446220536e+04 3.6061036785475342e-13 7.0621648253154362e+03 1.0703474168627181e+04 1.4158498530299726e+05 -999 3.39507565e-01 1.222260037e-01 -1.38935106e-01
 93 5 752103 9.7760582389260944e+03 1.7369896211086103e+04 4.0897328145860254e-13 6.4284259201002342e+03 9.9993695094867180e+03 6.0093249761772699e+04 -999 3.38653433e-01 1.181418996e-01 -1.38223484e-01
 94 5 752103 9.5689548099289732e+03 1.6180455129606884e+04 4.7449138257382343e-13 6.0783939777937749e+03 9.7541088792956725e+03 3.8585754086290508e+04 -999 3.38505271e-01 1.150191406e-01 -1.37663332e-01
 95 5 752103 9.2877446271189601e+03 1.5501302139572341e+04 5.1398766127535746e-13 5.8985200336090957e+03 9.7536757382517990e+03 2.0181260928230382e+04 -999 3.38744899e-01 1.133773088e-01 -1.37398881e-01
 96 5 752103 7.7866014743891928e+03 1.2643432774361077e+04 1.0445366177240208e-12 4.9451746361141431e+03 7.8634559427588265e+03 7.1062180136406707e+04 -999 3.46664684e-01 1.073519201e-01 -1.38498470e-01
 97 5 752103 6.7450005856549569e+03 1.0627195092504684e+04 2.0756445037871495e-12 4.8273322882914244e+03 6.6033226551822927e+03 9.9902306757707105e+04 -999 3.64999071e-01 9.832114650e-02 -1.42021641e-01
 98 5 752103 6.7475651862554905e+03 1.0597239678204911e+04 2.2407652198384855e-12 4.4904975728783165e+03 6.6292739116185148e+03 5.1616744619551151e+04 -999 3.83470660e-01 9.319741457e-02 -1.46420963e-01
 99 5 752103 6.7866652756905123e+03 1.0240955555498029e+04 2.2013127412582160e-12 4.0549190278862216e+03 6.8388654271180967e+03 4.7539795560769795e+04 -999 4.01176591e-01 8.970395464e-02 -1.50842873e-01
 100 5 752103 6.4780802778000389e+03 9.8232718204541488e+03 2.0637940183974713e-12 3.6744179819881542e+03 6.9041281195524089e+03 5.7275973310843598e+04 -999 4.20026373e-01 8.696470794e-02 -1.55769627e-01
 101 5 752103 4.3253363765395343e+03 5.8079768676597032e+03 3.2463472560416943e-12 3.0653593862110656e+03 4.5472550064514417e+03 7.7077609542218852e+04 -999 4.53476254e-01 8.363470425e-02 -1.64496204e-01
 102 5 752103 3.7707779090709219e+03 4.7025596120196105e+03 4.1935509494664178e-12 2.7411001041807649e+03 3.9294913875967559e+03 1.1374223757586277e+05 -999 4.97153742e-01 8.055867677e-02 -1.75634940e-01
 103 5 752103 3.4557861029240721e+03 4.3969727695690081e+03 4.3757067808382225e-12 2.5456922726144180e+03 3.3539136431838438e+03 1.0222028482921212e+05 -999 5.43313492e-01 7.820867999e-02 -1.86509626e-01
 104 5 752103 3.3627193846958644e+03 4.1416952769176978e+03 3.9759441002218824e-12 2.1504480790049647e+03 3.2053771103504632e+03 8.4670680678885838e+04 -999 5.91660176e-01 7.645416723e-02 -1.96188409e-01
 105 5 752103 3.3804773380320039e+03 3.9885701537588970e+03 3.3025201416740176e-12 1.8394011358780840e+03 3.2714034942957501e+03 5.7103938250665546e+04 -999 6.39765581e-01 7.530027072e-02 -2.03571314e-01
 106 5 752103 3.0417290135136136e+03 3.4536748203174570e+03 4.5118101021679810e-12 1.5477683582632310e+03 2.9909344764570887e+03 2.8429699645388035e+04 -999 6.74331767e-01 7.480536825e-02 -2.07513481e-01
 107 5 752103 2.9179520406241195e+03 3.1448863111805872e+03 4.6649000989232432e-12 1.3419313244517027e+03 2.8558018034990241e+03 2.4321487958524336e+04 -999 7.08057428e-01 7.463538049e-02 -2.10109013e-01
 108 5 752103 2.8355108990113263e+03 3.0377036363750176e+03 4.2196973808885105e-12 1.2365401855168736e+03 2.7625163789422622e+03 1.4267114211166665e+04 -999 7.25347804e-01 7.482173580e-02 -2.10842878e-01
 109 5 752103 2.7987099063028932e+03 2.8585649390956596e+03 3.6384958508104366e-12 1.1104744812040831e+03 2.7019540504704050e+03 1.7127417590922392e+04 -999 7.50094254e-01 7.528237315e-02 -2.11431144e-01
 110 5 752103 2.7645181357087849e+03 2.7745167963624235e+03 3.5928052063580224e-12 1.0412611887838566e+03 2.6624268998141661e+03 1.2904195548251793e+04 -999 7.62310275e-01 7.565996066e-02 -2.11491297e-01
 111 5 752103 2.5984895719395649e+03 2.6754129480781671e+03 4.0460355398919659e-12 1.0987594508725442e+03 2.5387610456211723e+03 1.4891990274958560e+04 -999 7.88139600e-01 7.649452088e-02 -2.11092080e-01
 112 5 752103 2.5156734461733013e+03 2.5207901808914507e+03 5.0441501446450906e-12 1.1270962249980973e+03 2.4979028726329461e+03 1.5243991562116298e+04 -999 8.23018707e-01 7.811249202e-02 -2.10069387e-01
 113 5 752103 2.4292537520061578e+03 2.4085233678607037e+03 4.5695701682150244e-12 1.0109467250790246e+03 2.4172012230084606e+03 1.1496902735856314e+04 -999 8.43950665e-01 7.937148745e-02 -2.09118598e-01
 114 5 752103 2.3507894557116979e+03 2.2977719497477215e+03 3.7249125073363941e-12 9.0076230655721668e+02 2.3367639277353169e+03 1.1105173591288407e+04 -999 8.69185080e-01 8.097977095e-02 -2.07625955e-01
 115 5 752103 2.2795225654112728e+03 2.2251193697220478e+03 3.2088160067896764e-12 8.3571534947835539e+02 2.2568333006323405e+03 9.6361381286945252e+03 -999 8.84291500e-01 8.193900072e-02 -2.06406756e-01
 116 5 752103 2.1497915607349973e+03 2.1544104671448854e+03 2.2597587955926179e-12 7.9431284090875715e+02 2.1193993115795456e+03 9.3255230746162288e+03 -999 8.98256594e-01 8.278550394e-02 -2.05128998e-01
 117 5 752103 2.0310189479977271e+03 2.0621928001276606e+03 1.9355807295241752e-12 7.5348420195882545e+02 1.9766250007605015e+03 9.5786493965758054e+03 -999 9.16220546e-01 8.378024502e-02 -2.03116175e-01
 118 5 752103 1.9373023978942076e+03 1.9307400564226118e+03 1.9552103253537408e-12 6.6606584234760726e+02 1.8362159660092739e+03 9.6159747272802015e+03 -999 9.38815711e-01 8.473591487e-02 -2.00133890e-01
 119 5 752103 1.8749378059166156e+03 1.8512543404624541e+03 1.9210989352234081e-12 5.8262032678533797e+02 1.7472235271573907e+03 9.2545011251940232e+03 -999 9.51102703e-01 8.499111138e-02 -1.98598314e-01
 120 5 752103 1.8330725912808796e+03 1.8018717292281601e+03 1.9175139412946158e-12 5.4773023550316213e+02 1.6895004499358461e+03 8.9283902358297764e+03 -999 9.60605494e-01 8.505886056e-02 -1.97552126e-01
 121 5 752103 1.7614082882164716e+03 1.7406275865735834e+03 1.4429918627391230e-12 5.4033687733115687e+02 1.6043904489528629e+03 9.6883993661579680e+03 -999 9.74404892e-01 8.501056744e-02 -1.96406777e-01
 122 5 752103 1.7012688134619880e+03 1.6959827011733312e+03 1.7386283084288653e-12 5.6030731362033998e+02 1.5317725625322096e+03 9.9682895649756992e+03 -999 9.89297416e-01 8.467810229e-02 -1.95396559e-01
 123 5 752103 1.6572564340191830e+03 1.6594392249650070e+03 1.9514498890466360e-12 5.5548236233354851e+02 1.4749221260138925e+03 9.7960186823876156e+03 -999 1.00314036e+00 8.405736793e-02 -1.94664703e-01
 124 5 752103 1.6287359343829553e+03 1.6344899506572579e+03 2.0481010150175596e-12 5.4925329257618750e+02 1.4394901382384310e+03 9.6400235799831644e+03 -999 1.01336042e+00 8.339190002e-02 -1.94250398e-01
 125 5 752103 1.6173058565140254e+03 1.6297514560528746e+03 2.0984843500122537e-12 5.4794804385780935e+02 1.4209433494961336e+03 9.2830852035425305e+03 -999 1.02154074e+00 8.279365656e-02 -1.94031108e-01
 126 5 752103 1.5707291101651520e+03 1.6125415892164281e+03 1.7033003275121980e-12 5.3097278833662392e+02 1.3734440909383802e+03 9.2183196355194741e+03 -999 1.02832749e+00 8.226649849e-02 -1.93993047e-01
 127 5 752103 1.5521129022539046e+03 1.6137269459680006e+03 1.6780534377433529e-12 5.5347977158844537e+02 1.3512335755452684e+03 9.4474566447971629e+03 -999 1.03598966e+00 8.161234838e-02 -1.93856795e-01
 128 5 752103 1.5457524334027764e+03 1.6067982350713100e+03 1.8298522727115116e-12 5.7688500224899315e+02 1.3429900389477627e+03 9.6509009087150862e+03 -999 1.04414218e+00 8.086878679e-02 -1.93685410e-01
 129 5 752103 1.5760825005765294e+03 1.6304472025750210e+03 1.9772403544779410e-12 5.8328774622379080e+02 1.3706726721348041e+03 9.8135621496455860e+03 -999 1.05364788e+00 8.000295642e-02 -1.93543636e-01
 130 5 752103 1.5847144554082824e+03 1.6285141068655741e+03 2.0285686836638455e-12 5.7566283000089777e+02 1.3766531912068258e+03 9.6578575017855674e+03 -999 1.05864588e+00 7.956420756e-02 -1.93521292e-01
 131 5 752103 1.5499415614376157e+03 1.6381174621991338e+03 1.7155689931108387e-12 5.7441718704618904e+02 1.3450944937556762e+03 9.8345296102550619e+03 -999 1.06328855e+00 7.916207674e-02 -1.93525039e-01
 132 5 752103 1.5352424973428188e+03 1.6489157409108464e+03 1.5519810039658322e-12 5.8696996036718735e+02 1.3329007482918912e+03 1.0528128448322395e+04 -999 1.06920517e+00 7.861258098e-02 -1.93411221e-01
 133 5 752103 1.5469822622123454e+03 1.6467628443046349e+03 1.5932533555167517e-12 5.7745520075619572e+02 1.3458684118474034e+03 1.1157326073810351e+04 -999 1.07605841e+00 7.796044932e-02 -1.93179909e-01
 134 5 752103 1.5774306137064302e+03 1.6563348958307486e+03 1.6737355260103978e-12 5.5462802540962332e+02 1.3766845897356184e+03 1.1573169436012840e+04 -999 1.08195150e+00 7.746530054e-02 -1.93048314e-01
 135 5 752103 1.5949126451153327e+03 1.6842592622375603e+03 1.7166399985450877e-12 5.4705986819094187e+02 1.3966019602063004e+03 1.2076322716480005e+04 -999 1.08609575e+00 7.716659770e-02 -1.93016705e-01
 136 5 752103 1.5466563834740425e+03 1.7100442494759211e+03 1.4316745486329329e-12 5.6747177046757633e+02 1.3544100698904083e+03 1.2940842382130792e+04 -999 1.09053234e+00 7.691860168e-02 -1.93121822e-01
 137 5 752103 1.5320950058562328e+03 1.7375945909952325e+03 1.3174182206819965e-12 5.8425646616457800e+02 1.3429018255046801e+03 1.3783547855320679e+04 -999 1.09495748e+00 7.658416499e-02 -1.93000388e-01
 138 5 752103 1.5373379527094769e+03 1.7509986271375362e+03 1.3323575982009769e-12 5.9036049029091157e+02 1.3527315537798600e+03 1.4589531269432602e+04 -999 1.09974744e+00 7.621395662e-02 -1.92780309e-01
 139 5 752103 1.5565246772129258e+03 1.7749904716858096e+03 1.3933915676713259e-12 5.9575165419392113e+02 1.3756126214741321e+03 1.5202735726830799e+04 -999 1.10426387e+00 7.592522580e-02 -1.92614621e-01
 140 5 752103 1.5990339873973355e+03 1.8215575576991166e+03 1.4437043102918982e-12 6.0084904906693237e+02 1.4172755602780010e+03 1.5734639937405560e+04 -999 1.10815608e+00 7.572556132e-02 -1.92533500e-01
 141 5 752103 1.5520809807545750e+03 1.8587514353285192e+03 1.2844823756969455e-12 6.1468958431663646e+02 1.3755665188505336e+03 1.6241540573272277e+04 -999 1.11048998e+00 7.567540857e-02 -1.92651785e-01