TITLE = "005.02 ALPHA 3.25 GRIDLEVEL 6"

VARIABLES = "ITERATION"  "GRID_LEVEL"  "GRID_SIZE"  "CONTINUITY"  "MOMENTUMX"  "MOMENTUMY"  "MOMENTUMZ"  "ENERGY"  "TURB1"  "TURB2"  "CL_TOT"  "CD_TOT"  "CM_TOT"

DATASETAUXDATA ParticipantID   = "005"
DATASETAUXDATA SubmissionDate  = "10-31-2024"
DATASETAUXDATA Name            = "Jeffrey A. Housman"
DATASETAUXDATA Email           = "jeffrey.a.housman@nasa.gov"
DATASETAUXDATA Institution     = "NASA Ames Research Center"
DATASETAUXDATA SolverName      = "LAVA Curvilinear"
DATASETAUXDATA BasicAlgorithm  = "RANS"
DATASETAUXDATA TurbulenceModel = "SA-RC-comp-neg"
DATASETAUXDATA GridId          = "Multiblock"
DATASETAUXDATA Discretization  = "Finite difference"
DATASETAUXDATA Order           = "2"
DATASETAUXDATA DistanceCalc    = "Exact"
DATASETAUXDATA Notes           = " "

ZONE T = "005.02 - Alpha 3.25 - Grid Level 6"
AUXDATA Tstatic         = "271.0"
AUXDATA Deltat          = "-999"
AUXDATA GridFileName    = "ONERA-OAT15A_230mmChord_780mmSpan_upZ_2024_06_25-Structured_23mm_Level-6.x"
AUXDATA Misc            = " "
 0 6 1281933 6.2356790289719636e+05 2.2366476644108100e+06 1.0839292499128920e-13 6.3754596803366812e+05 6.7609401390102424e+05 4.1595385736669861e+06 -999 1.90569058e-02 1.052780170e+00 -1.14746534e-02
 1 6 1281933 9.5032243044166383e+05 1.6337220596840051e+06 9.0827720534978755e-14 4.6938929157902073e+05 9.2863528135936719e+05 2.6955697503390252e+06 -999 5.18882351e-02 9.454788741e-01 -2.49544424e-02
 2 6 1281933 1.1658494878390580e+06 1.3712632035477732e+06 7.8090966739145428e-14 5.1218965864156315e+05 1.1210168393644115e+06 1.7541802387084807e+06 -999 9.33660259e-02 8.803387324e-01 -4.18570999e-02
 3 6 1281933 1.3511757968780980e+06 1.2115256416768241e+06 6.8514072967752270e-14 6.1062742526473489e+05 1.2978629333120089e+06 1.1479656712769538e+06 -999 1.32242605e-01 8.360918228e-01 -5.78222391e-02
 4 6 1281933 1.5027695732300312e+06 1.1032819691528135e+06 6.1141553939793343e-14 7.3014671324362350e+05 1.4591194062873458e+06 7.4580193587177608e+05 -999 1.66921922e-01 8.045365980e-01 -7.06556229e-02
 5 6 1281933 1.6653047388462557e+06 1.1003359098649628e+06 5.5381782587611066e-14 8.5351775338613929e+05 1.6616181174496012e+06 4.8073754641474312e+05 -999 1.93231486e-01 7.793583554e-01 -8.03713280e-02
 6 6 1281933 1.5064532772996181e+06 1.1029000082682616e+06 5.0952118171572233e-14 8.8412715243297396e+05 1.5063522278041451e+06 2.8730798101285473e+05 -999 2.11522907e-01 7.498564963e-01 -8.77821795e-02
 7 6 1281933 1.5326585849484755e+06 1.0966649058459946e+06 4.6823207246132005e-14 9.1681276289252704e+05 1.5326540505212706e+06 1.6150273251830268e+05 -999 2.27164621e-01 7.182995415e-01 -9.45393743e-02
 8 6 1281933 1.6159996454042462e+06 1.0496152457045917e+06 4.3777822597635176e-14 9.4443423018365039e+05 1.6332758794721835e+06 1.2584523401492609e+05 -999 2.38825161e-01 6.895265980e-01 -9.93812061e-02
 9 6 1281933 1.8466305805304304e+06 1.0961924326384505e+06 4.1494675600694923e-14 1.0006441708059984e+06 1.9329448844014516e+06 1.0773503840429414e+05 -999 2.47889564e-01 6.636060358e-01 -1.02916776e-01
 10 6 1281933 1.8693025619181632e+06 1.0269081216111630e+06 3.9843858081789253e-14 1.0187702256268637e+06 1.9430004714590118e+06 9.5926305866227020e+04 -999 2.54378413e-01 6.431232561e-01 -1.05418197e-01
 11 6 1281933 1.7378640899020855e+06 1.0427911678062108e+06 3.8335148286401726e-14 9.8833671656505787e+05 1.8085424233191004e+06 8.7234618387678376e+04 -999 2.59693955e-01 6.251283004e-01 -1.07517735e-01
 12 6 1281933 1.6060845220004132e+06 9.3626821252750326e+05 3.6652123997332138e-14 9.5952175185003993e+05 1.6293537952168684e+06 8.0702839656209253e+04 -999 2.65333755e-01 6.048456007e-01 -1.09638993e-01
 13 6 1281933 1.6441204623223254e+06 9.8462581240231358e+05 3.5341784149980941e-14 9.6748824672728137e+05 1.6820853362186055e+06 7.5368098442682138e+04 -999 2.69611257e-01 5.882080253e-01 -1.11225844e-01
 14 6 1281933 1.9000043076470818e+06 1.0797107497817897e+06 3.4211483672749603e-14 1.0307330006283302e+06 2.0070401567081392e+06 7.1026073225922795e+04 -999 2.73328523e-01 5.726253295e-01 -1.12679914e-01
 15 6 1281933 1.7620052519229527e+06 8.7840211303650355e+05 3.3513358952648569e-14 9.6651309423280437e+05 1.8321036829125343e+06 6.6808840774984448e+04 -999 2.75279819e-01 5.636773722e-01 -1.13499884e-01
 16 6 1281933 1.6307026385093764e+06 8.9002218805626023e+05 3.2598286841307484e-14 9.4480217767595418e+05 1.6782876900257708e+06 6.2709989697884790e+04 -999 2.77350206e-01 5.532339683e-01 -1.14366480e-01
 17 6 1281933 1.5134496876482894e+06 8.7495474377338239e+05 3.1685065239445393e-14 9.0914456830858206e+05 1.5358847651285459e+06 5.9485064959949930e+04 -999 2.79142099e-01 5.432354421e-01 -1.15054930e-01
 18 6 1281933 1.6626547864757085e+06 9.3066162854507996e+05 3.0807447087889444e-14 9.3942378730725055e+05 1.7205701566004776e+06 5.6922896837250242e+04 -999 2.80846735e-01 5.325891365e-01 -1.15631676e-01
 19 6 1281933 1.6263217861470713e+06 8.1366799984005676e+05 3.0227476686686645e-14 9.2205584518169507e+05 1.6670475737532128e+06 5.4490994041745202e+04 -999 2.81891566e-01 5.253051559e-01 -1.15927883e-01
 20 6 1281933 1.8014296096014427e+06 9.4504191545316519e+05 2.9724219819844707e-14 9.3633843834228849e+05 1.9089656322208035e+06 5.2259586856124006e+04 -999 2.82853183e-01 5.181542174e-01 -1.16180739e-01
 21 6 1281933 1.5249973726785353e+06 8.1714982845185942e+05 2.9122469481059620e-14 8.7497757050634979e+05 1.5892852821836625e+06 4.8878150762018799e+04 -999 2.83674858e-01 5.108935391e-01 -1.16383775e-01
 22 6 1281933 1.4199381715811135e+06 8.0740420640695014e+05 2.8565435061223236e-14 8.4488593735903176e+05 1.4436708527648449e+06 4.6354407499459696e+04 -999 2.84451888e-01 5.034620968e-01 -1.16576675e-01
 23 6 1281933 1.4764245744184328e+06 7.7473721241435979e+05 2.8104413089243562e-14 8.4809056277673517e+05 1.5061177793069528e+06 4.4389676545858565e+04 -999 2.85168967e-01 4.960197933e-01 -1.16762995e-01
 24 6 1281933 1.5255027006402051e+06 7.6675967009311006e+05 2.7764844460784499e-14 8.3535800437537173e+05 1.5853192252639709e+06 4.2554158745180139e+04 -999 2.85668113e-01 4.903653128e-01 -1.16899200e-01
 25 6 1281933 1.7367956274425536e+06 9.6587556087538344e+05 2.7490152306358063e-14 8.8793107656661200e+05 1.8615869444357431e+06 4.1090239147364126e+04 -999 2.86167493e-01 4.843756657e-01 -1.17039696e-01
 26 6 1281933 1.4687117906611746e+06 8.3821219697172591e+05 2.7046639753187023e-14 8.1022121060685883e+05 1.5622469958495288e+06 3.8346719506066307e+04 -999 2.86516289e-01 4.794243612e-01 -1.17134359e-01
 27 6 1281933 1.3007562289626899e+06 7.2228678421944473e+05 2.6609226247339120e-14 7.6415358543866465e+05 1.3347432269247712e+06 3.6372815088215619e+04 -999 2.86909528e-01 4.737397048e-01 -1.17241171e-01
 28 6 1281933 1.3077519333575051e+06 7.0554935491917329e+05 2.6260995462476440e-14 7.5124854277560732e+05 1.3324831130590297e+06 3.4826069662579263e+04 -999 2.87287662e-01 4.681595135e-01 -1.17341586e-01
 29 6 1281933 1.4083119031754490e+06 7.2795120486197295e+05 2.6049805802102949e-14 7.5050509102748276e+05 1.4775977962827520e+06 3.3445985218804351e+04 -999 2.87595581e-01 4.635643007e-01 -1.17421236e-01
 30 6 1281933 1.5752033972732001e+06 8.6797789059814822e+05 2.5884316768463804e-14 7.8685879537385784e+05 1.6891065891101798e+06 3.2283785688227079e+04 -999 2.87892225e-01 4.591211211e-01 -1.17497236e-01
 31 6 1281933 1.3251170649661464e+06 7.5679228461959423e+05 2.5499886408377782e-14 7.1793168065350922e+05 1.4162995425090380e+06 3.0152976456625562e+04 -999 2.88129311e-01 4.550585794e-01 -1.17554301e-01
 32 6 1281933 1.1534403848176252e+06 6.4594234779893456e+05 2.5097926769069887e-14 6.7044111786900985e+05 1.1911443930493591e+06 2.8664085285204059e+04 -999 2.88389930e-01 4.505734077e-01 -1.17618410e-01
 33 6 1281933 1.1736811476835250e+06 6.3756843892112689e+05 2.4743857834640334e-14 6.5742298236728157e+05 1.2020387106214960e+06 2.7486833071953744e+04 -999 2.88672599e-01 4.456813984e-01 -1.17690074e-01
 34 6 1281933 1.2465248257334200e+06 6.2573437889263104e+05 2.4549748577572250e-14 6.5778832404398068e+05 1.3007677867713913e+06 2.6410381981133240e+04 -999 2.88891001e-01 4.418757241e-01 -1.17747443e-01
 35 6 1281933 1.3765258661729528e+06 7.4131302401053440e+05 2.4456691257295570e-14 6.6984775441618706e+05 1.4831260441666045e+06 2.5415164757222377e+04 -999 2.89081603e-01 4.385326714e-01 -1.17798856e-01
 36 6 1281933 1.1661623887846451e+06 6.3177487663381430e+05 2.4196963811441122e-14 6.1978215506750951e+05 1.2490651009505640e+06 2.3751814221530050e+04 -999 2.89247359e-01 4.352413039e-01 -1.17841995e-01
 37 6 1281933 1.0016916011040082e+06 5.7040229891732195e+05 2.3916807902029046e-14 5.7536978998415382e+05 1.0372406224389578e+06 2.2577555298756666e+04 -999 2.89449148e-01 4.312831350e-01 -1.17895877e-01
 38 6 1281933 9.9211396320886235e+05 5.5012721330486820e+05 2.3740956378704289e-14 5.5513699882655719e+05 1.0124007311502122e+06 2.1636739284294214e+04 -999 2.89651810e-01 4.273633016e-01 -1.17951394e-01
 39 6 1281933 1.1016215147577669e+06 5.8328453640753857e+05 2.3701797882367612e-14 5.5882256053280085e+05 1.1561988436296692e+06 2.0795993185750525e+04 -999 2.89830357e-01 4.239589690e-01 -1.18001250e-01
 40 6 1281933 1.2256709777028381e+06 6.5817387604302843e+05 2.3766120745450584e-14 5.7861022005117917e+05 1.3139811468523478e+06 2.0031392506369441e+04 -999 2.89991358e-01 4.209248443e-01 -1.18046756e-01
 41 6 1281933 1.0356654720229774e+06 5.7926721583367325e+05 2.3506446451418520e-14 5.3021377128787083e+05 1.1156399274846476e+06 1.8712116186053292e+04 -999 2.90123773e-01 4.181739023e-01 -1.18082287e-01
 42 6 1281933 8.6553425176804583e+05 4.9030672207381460e+05 2.3192380583443249e-14 4.8634721033377066e+05 9.0299028298248793e+05 1.7780740677430353e+04 -999 2.90287983e-01 4.148440029e-01 -1.18126922e-01
 43 6 1281933 8.3800174370865978e+05 4.6658848169296701e+05 2.2921541783502459e-14 4.6408690634413168e+05 8.5126713178978930e+05 1.7033068243612070e+04 -999 2.90462362e-01 4.114012971e-01 -1.18174947e-01
 44 6 1281933 9.2128784366698284e+05 4.8782818214475829e+05 2.2796537038789351e-14 4.6346805364098964e+05 9.5997261996993260e+05 1.6367839335613582e+04 -999 2.90615990e-01 4.084407578e-01 -1.18217728e-01
 45 6 1281933 1.0369491580034096e+06 5.7002234198453219e+05 2.2772474385898262e-14 4.7565335563906148e+05 1.1142504005176476e+06 1.5749765697715698e+04 -999 2.90751686e-01 4.058714332e-01 -1.18255831e-01
 46 6 1281933 8.7508380385094369e+05 4.7973408368436212e+05 2.2548478481120869e-14 4.3698612407192000e+05 9.4430105596346024e+05 1.4704721711053640e+04 -999 2.90869947e-01 4.034392447e-01 -1.18287385e-01
 47 6 1281933 7.2735479790399596e+05 4.1324619267435838e+05 2.2283262229216732e-14 4.0074023584041913e+05 7.6377446758056863e+05 1.3933711021624087e+04 -999 2.91011321e-01 4.006038944e-01 -1.18325641e-01
 48 6 1281933 6.8317641174993350e+05 3.8197494050437881e+05 2.2048474197763840e-14 3.7737260770105757e+05 6.9139402237277385e+05 1.3297037158639354e+04 -999 2.91167430e-01 3.975535684e-01 -1.18368488e-01
 49 6 1281933 7.4432811203445599e+05 3.9281325913708372e+05 2.1936013301967868e-14 3.7299717367144977e+05 7.6645153581439599e+05 1.2735966817618535e+04 -999 2.91312598e-01 3.947851414e-01 -1.18408860e-01
 50 6 1281933 8.2973400292106066e+05 4.3441590917505813e+05 2.1938717981079136e-14 3.7896341191680625e+05 8.7871435728792660e+05 1.2219552850202110e+04 -999 2.91440482e-01 3.923912749e-01 -1.18444817e-01
 51 6 1281933 7.0866289880852925e+05 3.7853079418016988e+05 2.1744047238728266e-14 3.4917569338057301e+05 7.5941280931134743e+05 1.1390777559987797e+04 -999 2.91552085e-01 3.901471338e-01 -1.18474863e-01
 52 6 1281933 5.8725191339007707e+05 3.3169015171087941e+05 2.1521359817538051e-14 3.1906506115676003e+05 6.1823712244486168e+05 1.0746088821464851e+04 -999 2.91685339e-01 3.875326292e-01 -1.18511251e-01
 53 6 1281933 5.4253889457618271e+05 3.0436718246690591e+05 2.1325897860214863e-14 2.9736853341823642e+05 5.4984818495929695e+05 1.0195553947019129e+04 -999 2.91835293e-01 3.846659488e-01 -1.18552791e-01
 54 6 1281933 5.8201226076671365e+05 3.0912118045619770e+05 2.1238263836439391e-14 2.9045384209308989e+05 5.9535782041072531e+05 9.7059662307179897e+03 -999 2.91977089e-01 3.820234632e-01 -1.18592629e-01
 55 6 1281933 6.3884709623010363e+05 3.3418643635472347e+05 2.1260895071453789e-14 2.9131765028103243e+05 6.7160116490754730e+05 9.2641978432029500e+03 -999 2.92102415e-01 3.797350275e-01 -1.18628321e-01
 56 6 1281933 5.4981677736657753e+05 2.9314376200026774e+05 2.1072227119363221e-14 2.6935019831668935e+05 5.8595205420256220e+05 8.6305367455382475e+03 -999 2.92211844e-01 3.776179918e-01 -1.18658596e-01
 57 6 1281933 4.5587377252903767e+05 2.5819674805920484e+05 2.0831224262343379e-14 2.4606909638241582e+05 4.8094536120397662e+05 8.1036325063037357e+03 -999 2.92344042e-01 3.751234987e-01 -1.18695794e-01
 58 6 1281933 4.1371184934458067e+05 2.3492451178361938e+05 2.0615717570296606e-14 2.2581945249947792e+05 4.2155275183798437e+05 7.6353387757363207e+03 -999 2.92498771e-01 3.723211542e-01 -1.18739761e-01
 59 6 1281933 4.3439816708904231e+05 2.3328291245401770e+05 2.0517026626160776e-14 2.1657572466870581e+05 4.4318909710196120e+05 7.2260626772759433e+03 -999 2.92649007e-01 3.696633761e-01 -1.18783380e-01
 60 6 1281933 4.6813788501691160e+05 2.4877269099520441e+05 2.0538858324310898e-14 2.1358386664522209e+05 4.8920220266247250e+05 6.8379936039677596e+03 -999 2.92781276e-01 3.673659243e-01 -1.18822729e-01
 61 6 1281933 4.0396176348242571e+05 2.1896539333051781e+05 2.0347976874474182e-14 1.9703906366306028e+05 4.2834470780300198e+05 6.3441112962563902e+03 -999 2.92895482e-01 3.652916149e-01 -1.18856531e-01
 62 6 1281933 3.3456053113245912e+05 1.9331229973239941e+05 2.0110493395394531e-14 1.7887487045517744e+05 3.5364787489726261e+05 5.9185789194343743e+03 -999 2.93032918e-01 3.628381830e-01 -1.18897895e-01
 63 6 1281933 2.9844878517750365e+05 1.7538929838597044e+05 1.9874893317944172e-14 1.6302258368977698e+05 3.0653352466830442e+05 5.5325848090331310e+03 -999 2.93192061e-01 3.600484429e-01 -1.18946698e-01
 64 6 1281933 3.0424742733919469e+05 1.7073632522661480e+05 1.9747492594929320e-14 1.5413621018499506e+05 3.1072776030453935e+05 5.1953623711755508e+03 -999 2.93346267e-01 3.573905208e-01 -1.18995111e-01
 65 6 1281933 3.1862723456302623e+05 1.7370593163270602e+05 1.9731243837742982e-14 1.4933847627694838e+05 3.3023216479486728e+05 4.9027176243873964e+03 -999 2.93484990e-01 3.550254033e-01 -1.19039956e-01
 66 6 1281933 2.7680896751245146e+05 1.5721841270083562e+05 1.9553971826358879e-14 1.3827108684583782e+05 2.9143072109163995e+05 4.5000682853137905e+03 -999 2.93598709e-01 3.529812725e-01 -1.19076388e-01
 67 6 1281933 2.2919864561006022e+05 1.4139854342210366e+05 1.9328445751160587e-14 1.2553296691016745e+05 2.4190945336489793e+05 4.1666972413810963e+03 -999 2.93736882e-01 3.505232074e-01 -1.19121063e-01
 68 6 1281933 1.9998007564353885e+05 1.2882532668818165e+05 1.9091215185289325e-14 1.1344632326738538e+05 2.0655201048452017e+05 3.8557376450959937e+03 -999 2.93898485e-01 3.476789450e-01 -1.19173967e-01
 69 6 1281933 1.9684974146564814e+05 1.2311847195256258e+05 1.8949642946913285e-14 1.0546343810800635e+05 2.0157185715356548e+05 3.6029133937649217e+03 -999 2.94055787e-01 3.449348271e-01 -1.19226601e-01
 70 6 1281933 1.9906366670542036e+05 1.2072335361536955e+05 1.8926945360216273e-14 1.0011344918740234e+05 2.0527038783514581e+05 3.3699391289362425e+03 -999 2.94197588e-01 3.424693451e-01 -1.19275775e-01
 71 6 1281933 1.7362394726260516e+05 1.1154828065805028e+05 1.8750570590748101e-14 9.2991818765844801e+04 1.8169317141697017e+05 3.0790031865843653e+03 -999 2.94309759e-01 3.403873422e-01 -1.19313338e-01
 72 6 1281933 1.4377359045967736e+05 1.0222603079933523e+05 1.8525543305277071e-14 8.4576534393705530e+04 1.5116241519371056e+05 2.8266729401345492e+03 -999 2.94446407e-01 3.378671719e-01 -1.19359341e-01
 73 6 1281933 1.2256368584844175e+05 9.3988653289121168e+04 1.8270316070372278e-14 7.5956105414019359e+04 1.2684458827320476e+05 2.6058582940503588e+03 -999 2.94608109e-01 3.349038468e-01 -1.19414417e-01
 74 6 1281933 1.1562892395275478e+05 8.8769771416566859e+04 1.8094824621103766e-14 6.9415233826965588e+04 1.1856292006556041e+05 2.4193059835866798e+03 -999 2.94766190e-01 3.320180763e-01 -1.19469837e-01
 75 6 1281933 1.1205307262637351e+05 8.5008514070061297e+04 1.8045524556625481e-14 6.4461232999814863e+04 1.1502459568965291e+05 2.2599110029789317e+03 -999 2.94908446e-01 3.294154162e-01 -1.19522383e-01
 76 6 1281933 9.7985706784073496e+04 7.9747069661977308e+04 1.7873293972589997e-14 5.8957026827263682e+04 1.0178759415461845e+05 2.0619189766216400e+03 -999 2.95016980e-01 3.272148717e-01 -1.19559051e-01
 77 6 1281933 8.1149720300238987e+04 7.4066070881397711e+04 1.7652955070401529e-14 5.2533490941587428e+04 8.4644901406939389e+04 1.8799851300825105e+03 -999 2.95149463e-01 3.245226287e-01 -1.19603878e-01
 78 6 1281933 6.7485556412171965e+04 6.8455009139793983e+04 1.7386472834192649e-14 4.5716436731105750e+04 6.9547296362030305e+04 1.7512690166398288e+03 -999 2.95307856e-01 3.212877947e-01 -1.19658112e-01
 79 6 1281933 6.0520574444986691e+04 6.4138362888237883e+04 1.7161534054335529e-14 4.0245963365984557e+04 6.1791497390286415e+04 1.6497616191944437e+03 -999 2.95461943e-01 3.181012289e-01 -1.19713019e-01
 80 6 1281933 5.5725347367730195e+04 6.0680906765746236e+04 1.7038592972204013e-14 3.6040351737925026e+04 5.6695727833720994e+04 1.5729893881322998e+03 -999 2.95600057e-01 3.151776805e-01 -1.19766097e-01
 81 6 1281933 4.8471640291048243e+04 5.7246066784769377e+04 1.6874077046103593e-14 3.2724609121598063e+04 4.9695547981728065e+04 1.4849835734918254e+03 -999 2.95691701e-01 3.125533607e-01 -1.19791799e-01
 82 6 1281933 3.9891971870557732e+04 5.3413299661626901e+04 1.6644704626119031e-14 2.8905710618147808e+04 4.0970812172037775e+04 1.4739206799378071e+03 -999 2.95799998e-01 3.092628637e-01 -1.19819685e-01
 83 6 1281933 3.2467297229878539e+04 4.9452772246408458e+04 1.6345654845867725e-14 2.4933459110843844e+04 3.3075031378658081e+04 1.6175273808814720e+03 -999 2.95923457e-01 3.051948945e-01 -1.19848134e-01
 84 6 1281933 2.8115796109052299e+04 4.6271439471469137e+04 1.6075008356832889e-14 2.1879785906148816e+04 2.8531251017147209e+04 1.9241312330440803e+03 -999 2.96033917e-01 3.010991006e-01 -1.19871053e-01
 85 6 1281933 2.5347561930934000e+04 4.3807376067277059e+04 1.5864304899049551e-14 1.9767047617581622e+04 2.5767751192043073e+04 2.3476663689840234e+03 -999 2.96124318e-01 2.972144406e-01 -1.19889439e-01
 86 6 1281933 2.2147034606674039e+04 4.1284593042228102e+04 1.5645655152657893e-14 1.7992178184646767e+04 2.2845106676513908e+04 2.8804783103096370e+03 -999 2.96157101e-01 2.930405093e-01 -1.19844540e-01
 87 6 1281933 1.8915765899234753e+04 3.8471995174986332e+04 1.5384978998179397e-14 1.6191207600491045e+04 1.9934537345054527e+04 3.6267347971181694e+03 -999 2.96211412e-01 2.875485378e-01 -1.19779133e-01
 88 6 1281933 1.6889996502929887e+04 3.5772389057368157e+04 1.5034098656293225e-14 1.4737664811450999e+04 1.8340189779529577e+04 6.3510196123303203e+03 -999 2.96319421e-01 2.806268007e-01 -1.19699174e-01
 89 6 1281933 1.6366013841065433e+04 3.3923423041961971e+04 1.4711964108369162e-14 1.3985150350345813e+04 1.8270640872039978e+04 1.3677966321531059e+04 -999 2.96484749e-01 2.735132050e-01 -1.19629222e-01
 90 6 1281933 1.6505266373968840e+04 3.2838520833223316e+04 1.4494727895962838e-14 1.3711501919501103e+04 1.8777113551414652e+04 1.9402684229236522e+04 -999 2.96725840e-01 2.664145081e-01 -1.19605076e-01
 91 6 1281933 1.5780032121994722e+04 3.0376649324900605e+04 3.7956049178349758e-14 1.2945868233515364e+04 1.8262316187879369e+04 5.7927550050828992e+04 -999 2.97200796e-01 2.564551629e-01 -1.19714324e-01
 92 6 1281933 1.6008523104577740e+04 2.8990862633297271e+04 8.4623543818520090e-14 1.2589111064227080e+04 1.8667200235144319e+04 1.4446262026600062e+05 -999 2.98006027e-01 2.419808623e-01 -1.20097618e-01
 93 6 1281933 1.6865072942885836e+04 3.2292682000237532e+04 1.4150526308219953e-13 1.2483489563560790e+04 2.0122954685655379e+04 2.8153305953927216e+05 -999 2.99075896e-01 2.237371229e-01 -1.21045110e-01
 94 6 1281933 1.7071976964656937e+04 3.7233404929616692e+04 1.6481491656327885e-13 1.2465153823386245e+04 2.3663954920692693e+04 2.7073743646336353e+05 -999 2.99392937e-01 2.159136612e-01 -1.21676989e-01
 95 6 1281933 1.7123241175831074e+04 3.6967010247446604e+04 1.7782931714525870e-13 1.2674838714948335e+04 2.6489864097283065e+04 3.2743685256014502e+05 -999 2.99498611e-01 2.112603610e-01 -1.22092780e-01
 96 6 1281933 1.6725965705102670e+04 2.2559813896065112e+04 1.2110313388906282e-13 1.2159140731921334e+04 1.8592673626856649e+04 6.3871892367152194e+05 -999 3.00187967e-01 1.874570141e-01 -1.24226837e-01
 97 6 1281933 1.6203621579364964e+04 2.0829081986345693e+04 1.6595185202219944e-13 1.1526286696498446e+04 1.7522640792713344e+04 2.5104907769013540e+05 -999 2.99601113e-01 1.659056683e-01 -1.26553964e-01
 98 6 1281933 1.5737238804060009e+04 3.6092035452440075e+04 2.2297383512682763e-13 1.1376549935196332e+04 1.7982980486452900e+04 5.2388045057918009e+05 -999 2.97155227e-01 1.471995473e-01 -1.28407867e-01
 99 6 1281933 1.5563550555862545e+04 4.2561799418620816e+04 2.2661937242385533e-13 1.1059432507034326e+04 1.7634713984303915e+04 4.3616568799406831e+05 -999 2.96653671e-01 1.454799847e-01 -1.28487779e-01
 100 6 1281933 1.5471468124771796e+04 4.0227823420172514e+04 2.2855232523178642e-13 1.0884390685219587e+04 1.7272921052458420e+04 2.1762160735112370e+05 -999 2.96336372e-01 1.444830665e-01 -1.28523547e-01
 101 6 1281933 1.3921058592024950e+04 2.3935710092045541e+04 2.4266883195355947e-13 9.1295481618864032e+03 1.4480634881967826e+04 2.2376555284555108e+05 -999 2.90965550e-01 1.287622093e-01 -1.28746165e-01
 102 6 1281933 1.2869486212288755e+04 2.1517999024810393e+04 2.6944028870081520e-13 7.9605620967544601e+03 1.3272013832265304e+04 1.3537914503910372e+05 -999 2.87442514e-01 1.206046889e-01 -1.28200818e-01
 103 6 1281933 1.2308798626542750e+04 1.9615108675722695e+04 2.8454528336080436e-13 7.2499766873780718e+03 1.2573963006780032e+04 8.1521756219724077e+04 -999 2.85794290e-01 1.161614183e-01 -1.27758399e-01
 104 6 1281933 1.2269562395555016e+04 1.8724496146085032e+04 2.9687844409796592e-13 6.6904111741129782e+03 1.2385444705912076e+04 3.2472632042958958e+04 -999 2.84907489e-01 1.125496834e-01 -1.27435582e-01
 105 6 1281933 1.1979663808602798e+04 2.0142557427807773e+04 3.0108819758647524e-13 6.4660786021462454e+03 1.2506960324693478e+04 1.7270434981623453e+04 -999 2.84756144e-01 1.108228215e-01 -1.27326292e-01
 106 6 1281933 1.0408694913062791e+04 1.6106443656823034e+04 3.5749956278418247e-13 5.7066204449823863e+03 1.0529739123245103e+04 1.4362853160227529e+04 -999 2.87345006e-01 1.056405552e-01 -1.27670092e-01
 107 6 1281933 9.0387416628063529e+03 1.2639937691682759e+04 6.4754111162100864e-13 5.3670395342564198e+03 8.8026895991977472e+03 2.2147189647635536e+04 -999 2.95888718e-01 9.805010433e-02 -1.29634124e-01
 108 6 1281933 9.0084546114366676e+03 1.2916002514395956e+04 8.4513229247819059e-13 5.3990490852848961e+03 8.6687806751540993e+03 4.0144649052110537e+04 -999 3.11021038e-01 9.214794561e-02 -1.33944820e-01
 109 6 1281933 8.9908552334523047e+03 1.2741287000151564e+04 8.8606015518858576e-13 5.1827542376153433e+03 8.7390248469170638e+03 3.0350232389107397e+04 -999 3.20745487e-01 9.001707136e-02 -1.36974368e-01
 110 6 1281933 8.5351528540142353e+03 1.2488858296900635e+04 9.0862702156609402e-13 4.9628834067102034e+03 8.3941844794867375e+03 3.7590893961370857e+04 -999 3.30736150e-01 8.822092463e-02 -1.40156886e-01
 111 6 1281933 6.2975125995144444e+03 8.8117416254560812e+03 2.1463952422434057e-12 3.8952382490169612e+03 5.9504093152868354e+03 3.6648288987346597e+04 -999 3.57009729e-01 8.475611847e-02 -1.48432972e-01
 112 6 1281933 5.2011709482208562e+03 6.5921575367063333e+03 3.3175223733485540e-12 3.1348980484330618e+03 4.9708728990714653e+03 3.4710511379662741e+04 -999 3.93349618e-01 8.089317799e-02 -1.59809173e-01
 113 6 1281933 4.5811643565926879e+03 5.6175009370360804e+03 3.4080798940367727e-12 2.6178150503898960e+03 4.3839886302303603e+03 1.1098489257062683e+05 -999 4.45959800e-01 7.609433194e-02 -1.75407842e-01
 114 6 1281933 4.2217748772929644e+03 5.1091443706476621e+03 2.7603846468341175e-12 2.1813505456199773e+03 4.0201649524032691e+03 6.1857585418740724e+04 -999 4.88701656e-01 7.279941276e-02 -1.86399036e-01
 115 6 1281933 4.0514771460466700e+03 4.6413274567607823e+03 2.1279793947256157e-12 1.7099892578635900e+03 3.8740747481230214e+03 4.5698651464545175e+04 -999 5.36987702e-01 6.946007282e-02 -1.96681474e-01
 116 6 1281933 3.1771664181406659e+03 3.7044905435648052e+03 2.7086330207804815e-12 1.1486651616759298e+03 3.0073673319197442e+03 2.5823495879762155e+04 -999 6.01062182e-01 6.782702907e-02 -2.04136225e-01
 117 6 1281933 2.8351935330475831e+03 3.2716899479466620e+03 3.3777819899553868e-12 9.0544597651593995e+02 2.6605223498504797e+03 2.2691411190557828e+04 -999 6.50944574e-01 6.705940722e-02 -2.07293967e-01
 118 6 1281933 2.6775942243377449e+03 3.0780800426868100e+03 3.5786871030014732e-12 8.0997362674908982e+02 2.5004480532957800e+03 1.3009568276287855e+04 -999 6.78704660e-01 6.682646094e-02 -2.07840067e-01
 119 6 1281933 2.5980026562275743e+03 2.9731369123148365e+03 3.6572204584371121e-12 7.6614716963246428e+02 2.4174761028482958e+03 7.9870380353009796e+03 -999 6.96082673e-01 6.675467836e-02 -2.07779157e-01
 120 6 1281933 2.5424302805625089e+03 2.8931357643270917e+03 3.7179103055468365e-12 7.3028522820965782e+02 2.3594685948099932e+03 6.2888487044734011e+03 -999 7.09844567e-01 6.673176570e-02 -2.07536810e-01
 121 6 1281933 2.3335959172975122e+03 2.8392214638633614e+03 3.4035905671933004e-12 7.4529164656981663e+02 2.1556385910287950e+03 6.2522208907946761e+03 -999 7.38949555e-01 6.731268354e-02 -2.07544126e-01
 122 6 1281933 2.2392312221917655e+03 2.9153362119160133e+03 3.6171436225711075e-12 8.8627261870396933e+02 2.0676359113894450e+03 5.9870246533608679e+03 -999 7.62893097e-01 6.762446495e-02 -2.07222339e-01
 123 6 1281933 2.1788581284877646e+03 3.0043724044918117e+03 4.0228682691581880e-12 1.0410924497895262e+03 2.0094373647868883e+03 6.2697367667156195e+03 -999 7.86252658e-01 6.795461454e-02 -2.06538643e-01
 124 6 1281933 2.1776834710994249e+03 3.0732008534306083e+03 4.3942006709997146e-12 1.1178389658493375e+03 2.0048404929287999e+03 6.3578396368302492e+03 -999 8.05340647e-01 6.816261797e-02 -2.05634231e-01
 125 6 1281933 2.1894919156401702e+03 3.1042833078919875e+03 4.6911026789959694e-12 1.1442883278251152e+03 2.0096713696368072e+03 6.0013106924124158e+03 -999 8.17558908e-01 6.824774330e-02 -2.04822542e-01
 126 6 1281933 2.1894919156401706e+03 3.2728021644082123e+03 4.9783685694547390e-12 1.2337275755978083e+03 2.0155251554429019e+03 4.9169199077773519e+03 -999 8.17558908e-01 6.824774330e-02 -2.04822542e-01
 127 6 1281933 2.2393217828594270e+03 3.5329541615208750e+03 5.2762389102187246e-12 1.3484989136913466e+03 2.0707239808822269e+03 4.9850415246723769e+03 -999 8.28042741e-01 6.852709147e-02 -2.04742255e-01
 128 6 1281933 2.1452230449612521e+03 3.1715696389764908e+03 4.6516053662205077e-12 1.1438402957932999e+03 1.9720062725936643e+03 5.5049042924347523e+03 -999 8.30250916e-01 6.854097088e-02 -2.04729502e-01
 129 6 1281933 2.0754644092735989e+03 2.7605466788838244e+03 3.7553298113953635e-12 8.8124392923468770e+02 1.8976869314638650e+03 5.8289001991209407e+03 -999 8.33159688e-01 6.856293175e-02 -2.04709028e-01
 130 6 1281933 2.0403259430741034e+03 2.4495092899955189e+03 2.7508506782249722e-12 6.4681804474267801e+02 1.8593121393103688e+03 6.4526121067340227e+03 -999 8.36856837e-01 6.859387552e-02 -2.04669487e-01
 131 6 1281933 2.0152454149313319e+03 2.3344462426697455e+03 2.1523046013475946e-12 5.8559109518180810e+02 1.8348138576159315e+03 6.0467940924887362e+03 -999 8.39940086e-01 6.862300472e-02 -2.04618756e-01
 132 6 1281933 1.9999010847157952e+03 2.2277450520885818e+03 1.5978616566314270e-12 5.5004259985978877e+02 1.8183140536705830e+03 6.3181502134713619e+03 -999 8.43732106e-01 6.865555079e-02 -2.04520830e-01
 133 6 1281933 1.9939141438401784e+03 2.1437624827228951e+03 1.1910508506529902e-12 5.3318223468009830e+02 1.8100266303152800e+03 6.5387812847356126e+03 -999 8.47797277e-01 6.868064509e-02 -2.04349402e-01
 134 6 1281933 1.9883667348758945e+03 2.0972296634845175e+03 9.9455729858110738e-13 5.2374961485655365e+02 1.8041459742732238e+03 6.5899473593425228e+03 -999 8.50838714e-01 6.868534282e-02 -2.04145189e-01
 135 6 1281933 2.0046323997096363e+03 2.0818649551840554e+03 8.7474622847387708e-13 5.1696730823839698e+02 1.8177350768340257e+03 6.8110170714396636e+03 -999 8.53769436e-01 6.867499954e-02 -2.03873529e-01
 136 6 1281933 1.9842407490130802e+03 2.0159062643710170e+03 7.0931713926997770e-13 4.9706375802518414e+02 1.7973375762217672e+03 7.0758634567122208e+03 -999 8.56858839e-01 6.863428858e-02 -2.03439087e-01
 137 6 1281933 1.9854132900699653e+03 1.9669044446353653e+03 6.2937519589009683e-13 4.9060529520403497e+02 1.7971182336313186e+03 7.4987192537308392e+03 -999 8.61042303e-01 6.856117620e-02 -2.02732693e-01
 138 6 1281933 2.0384595795012540e+03 1.9468695758041313e+03 6.4649024918077953e-13 4.9118416389031177e+02 1.8457996587444006e+03 8.1315098754729652e+03 -999 8.67021728e-01 6.842609725e-02 -2.01493058e-01
 139 6 1281933 2.0727286818085208e+03 1.9214945900360788e+03 1.1419249727557234e-12 4.8539126491518124e+02 1.8771528275135247e+03 7.6757812425558304e+03 -999 8.70941665e-01 6.831918528e-02 -2.00476270e-01
 140 6 1281933 2.0992595304976408e+03 1.9127309934469672e+03 2.1135825094624015e-12 4.7997998536874564e+02 1.9052910643273526e+03 7.4357755583709295e+03 -999 8.74541678e-01 6.822759385e-02 -1.99479742e-01