TITLE = "005.02 ALPHA 3.00 GRIDLEVEL 3"

VARIABLES = "ITERATION"  "GRID_LEVEL"  "GRID_SIZE"  "CONTINUITY"  "MOMENTUMX"  "MOMENTUMY"  "MOMENTUMZ"  "ENERGY"  "TURB1"  "TURB2"  "CL_TOT"  "CD_TOT"  "CM_TOT"

DATASETAUXDATA ParticipantID   = "005"
DATASETAUXDATA SubmissionDate  = "10-31-2024"
DATASETAUXDATA Name            = "Jeffrey A. Housman"
DATASETAUXDATA Email           = "jeffrey.a.housman@nasa.gov"
DATASETAUXDATA Institution     = "NASA Ames Research Center"
DATASETAUXDATA SolverName      = "LAVA Curvilinear"
DATASETAUXDATA BasicAlgorithm  = "RANS"
DATASETAUXDATA TurbulenceModel = "SA-RC-comp-neg"
DATASETAUXDATA GridId          = "Multiblock"
DATASETAUXDATA Discretization  = "Finite difference"
DATASETAUXDATA Order           = "2"
DATASETAUXDATA DistanceCalc    = "Exact"
DATASETAUXDATA Notes           = " "

ZONE T = "005.02 - Alpha 3.00 - Grid Level 3"
AUXDATA Tstatic         = "271.0"
AUXDATA Deltat          = "-999"
AUXDATA GridFileName    = "ONERA-OAT15A_230mmChord_780mmSpan_upZ_2024_06_25-Structured_23mm_Level-3.x"
AUXDATA Misc            = " "
 0 3 234820 2.6646359443702619e+05 6.4380276558356488e+05 4.4403268329628505e-14 2.4095926659014978e+05 2.7171854672710114e+05 1.0403483306247045e+06 -999 1.01162269e-02 6.039753064e-01 -5.98017459e-03
 1 3 234820 3.7621158715023741e+05 5.0320540353845694e+05 3.9156107885351785e-14 1.9585582709438921e+05 3.6421907960337400e+05 6.7295378870556841e+05 -999 4.56712927e-02 5.779555509e-01 -2.12161080e-02
 2 3 234820 4.5807591869724524e+05 4.4361937356106495e+05 3.5224097718514753e-14 2.1754088041255123e+05 4.3831383935590473e+05 4.3569413724736532e+05 -999 8.54472542e-02 5.686159248e-01 -3.81061294e-02
 3 3 234820 5.3794165193648322e+05 4.0427044596158573e+05 3.2186856037322023e-14 2.5598673503392251e+05 5.1392258572581288e+05 2.8141241041695169e+05 -999 1.20171578e-01 5.667498967e-01 -5.32832614e-02
 4 3 234820 6.1484481693671364e+05 3.7402306261181383e+05 2.9804122348492374e-14 3.0317305281675409e+05 5.9272233044005581e+05 1.7842556163672369e+05 -999 1.50633017e-01 5.692976711e-01 -6.51399203e-02
 5 3 234820 6.9001421132043621e+05 3.7759265289162844e+05 2.7950476352464422e-14 3.5440816763969924e+05 6.7654635028797761e+05 9.6198611486771988e+04 -999 1.74305552e-01 5.731918312e-01 -7.40526695e-02
 6 3 234820 6.3578051399370783e+05 4.2250612230246142e+05 2.6558975680015579e-14 3.7707867326262477e+05 6.2569404849774530e+05 6.7527355640168535e+04 -999 1.90236220e-01 5.705072799e-01 -8.07147819e-02
 7 3 234820 6.5061687575096672e+05 4.4337353805623815e+05 2.5296585183531424e-14 3.9302200783643383e+05 6.3607710191492259e+05 5.3758566699879084e+04 -999 2.03127910e-01 5.638064367e-01 -8.66262512e-02
 8 3 234820 7.0757987629789417e+05 4.4376831262541615e+05 2.4418364558839257e-14 4.0031436760704586e+05 7.1061163345914031e+05 4.5859629599727079e+04 -999 2.13283158e-01 5.532701289e-01 -9.11119668e-02
 9 3 234820 8.2322681930796709e+05 4.6241855938767624e+05 2.3802514698196505e-14 4.3203374956060917e+05 8.4459661246216856e+05 4.0833675347468641e+04 -999 2.23673219e-01 5.391280320e-01 -9.51860442e-02
 10 3 234820 8.1024150936168316e+05 4.2346483621431055e+05 2.3418162499937676e-14 4.1706837416338682e+05 8.3979838326735527e+05 3.6753817459535720e+04 -999 2.29763631e-01 5.300316839e-01 -9.74362414e-02
 11 3 234820 7.1390555706194916e+05 3.8812725099258736e+05 2.2913626876310886e-14 4.0049801073683705e+05 7.2437069610191148e+05 3.3181596208391646e+04 -999 2.37284079e-01 5.180855684e-01 -1.00330981e-01
 12 3 234820 6.7269683781619312e+05 4.0276269413293171e+05 2.2477069550398449e-14 3.8604559052408463e+05 6.7902115828028496e+05 3.0262801481726608e+04 -999 2.42744257e-01 5.087993069e-01 -1.02420072e-01
 13 3 234820 7.0703835400509567e+05 3.7801631401734665e+05 2.2098507149145942e-14 3.8779820163580257e+05 7.1668667676692107e+05 2.7907264887705463e+04 -999 2.47799137e-01 4.993234144e-01 -1.04370012e-01
 14 3 234820 6.9529617156458902e+05 3.6377725710898306e+05 2.1808101092025625e-14 3.6867708645996189e+05 7.1573282797555265e+05 2.5907601839828218e+04 -999 2.50601484e-01 4.931743632e-01 -1.05509880e-01
 15 3 234820 7.3703969703169737e+05 3.9442359446578013e+05 2.1554982270787562e-14 3.8298877402343578e+05 7.6377138876098325e+05 2.4331458690482752e+04 -999 2.53391678e-01 4.864411803e-01 -1.06725042e-01
 16 3 234820 6.6099915335535049e+05 3.8530524705976737e+05 2.1288232725520852e-14 3.5564985464622482e+05 6.8900170283174107e+05 2.2262719517158715e+04 -999 2.55284196e-01 4.811104312e-01 -1.07608650e-01
 17 3 234820 5.7161798701875517e+05 3.1713183371428231e+05 2.0979304870312692e-14 3.2393042580277560e+05 5.8270449962187035e+05 2.0573465320588053e+04 -999 2.57439997e-01 4.745610670e-01 -1.08619025e-01
 18 3 234820 5.6955230565883999e+05 3.2742506101596862e+05 2.0713490299882274e-14 3.1530443591707933e+05 5.8005532796307059e+05 1.9202658974302078e+04 -999 2.59343345e-01 4.681354406e-01 -1.09479671e-01
 19 3 234820 5.8310281120973523e+05 2.9591534296945872e+05 2.0519811854876926e-14 3.1077308083034051e+05 5.9383244138469326e+05 1.8019580050218214e+04 -999 2.60867521e-01 4.623452433e-01 -1.10119795e-01
 20 3 234820 6.0449494332487870e+05 3.0278561789800989e+05 2.0400997297962486e-14 3.0157945461845753e+05 6.3200412883851875e+05 1.6917011958320247e+04 -999 2.61917168e-01 4.578558656e-01 -1.10522549e-01
 21 3 234820 5.0893129175834917e+05 2.7149883176574542e+05 2.0193564646757845e-14 2.7775803025874152e+05 5.2949134950596327e+05 1.5587255944237069e+04 -999 2.62959273e-01 4.525157116e-01 -1.10889671e-01
 22 3 234820 4.5895787700994743e+05 2.6624610168196436e+05 1.9994323710066575e-14 2.6138523701785246e+05 4.6785987298730901e+05 1.4501498371461712e+04 -999 2.63922760e-01 4.471649431e-01 -1.11208031e-01
 23 3 234820 4.6489789042902907e+05 2.5133480280056718e+05 1.9803021438895475e-14 2.5258086803272224e+05 4.7051890550606616e+05 1.3588734656940689e+04 -999 2.64899348e-01 4.412948632e-01 -1.11517237e-01
 24 3 234820 4.6360564191090968e+05 2.4413922726401553e+05 1.9671407963072281e-14 2.4290633914503470e+05 4.7907442382088094e+05 1.2785353867286774e+04 -999 2.65533176e-01 4.370617274e-01 -1.11713818e-01
 25 3 234820 5.4248338345882588e+05 3.0386707745527185e+05 1.9542624663165918e-14 2.5718306680418339e+05 5.7683969939596113e+05 1.2094061773881129e+04 -999 2.66199504e-01 4.322449692e-01 -1.11923954e-01
 26 3 234820 4.4229850744092138e+05 2.6930507793324598e+05 1.9322209648370063e-14 2.2796479250712055e+05 4.7359446891274140e+05 1.1186149066762686e+04 -999 2.66647740e-01 4.281853067e-01 -1.12065387e-01
 27 3 234820 3.6875707337514410e+05 2.1855477726443103e+05 1.9090518274069103e-14 2.0507113868860606e+05 3.8250550232863630e+05 1.0422442355625371e+04 -999 2.67105843e-01 4.238118856e-01 -1.12214675e-01
 28 3 234820 3.5423116335258959e+05 2.0458778147548600e+05 1.8873885893680357e-14 1.9287169855272563e+05 3.5851119653849106e+05 9.7632981976996507e+03 -999 2.67563299e-01 4.191802040e-01 -1.12368051e-01
 29 3 234820 3.7011884411566495e+05 2.0286107801085716e+05 1.8734986428541844e-14 1.8738157481355389e+05 3.8543029026124836e+05 9.1956240927353792e+03 -999 2.67900674e-01 4.155570346e-01 -1.12483867e-01
 30 3 234820 4.3027777356233314e+05 2.4797459563355218e+05 1.8617557443408487e-14 1.9583821138564375e+05 4.5980694782396971e+05 8.6952802475050139e+03 -999 2.68246222e-01 4.117083962e-01 -1.12603948e-01
 31 3 234820 3.5395311500918551e+05 2.2247349955946192e+05 1.8414075312950823e-14 1.7478519889339223e+05 3.8360453338616720e+05 8.0018972480792063e+03 -999 2.68473190e-01 4.085968220e-01 -1.12679012e-01
 32 3 234820 2.8329906615024054e+05 1.8003378380837361e+05 1.8164119208758642e-14 1.5376993302066776e+05 3.0125186499963171e+05 7.4160680406811398e+03 -999 2.68736140e-01 4.049604457e-01 -1.12765430e-01
 33 3 234820 2.5351625421194933e+05 1.5802896914914044e+05 1.7908221948470849e-14 1.3901740670264378e+05 2.5816994876644798e+05 6.9052575723161399e+03 -999 2.69022332e-01 4.009419910e-01 -1.12858394e-01
 34 3 234820 2.6938121504283283e+05 1.5453035611069333e+05 1.7706566400163743e-14 1.3389252421324933e+05 2.7756368250859377e+05 6.4590785131251187e+03 -999 2.69276094e-01 3.973072565e-01 -1.12940229e-01
 35 3 234820 2.7815775462848879e+05 1.5588719883925846e+05 1.7572490941679344e-14 1.3068165556675725e+05 2.9384278459160484e+05 6.0678033872371061e+03 -999 2.69465413e-01 3.945465639e-01 -1.13001478e-01
 36 3 234820 2.3622007143350248e+05 1.3886495228816490e+05 1.7370044302996789e-14 1.1865379485541962e+05 2.5310570172740766e+05 5.5185699360482377e+03 -999 2.69628517e-01 3.916824118e-01 -1.13051322e-01
 37 3 234820 1.9134418798329349e+05 1.2561127607554244e+05 1.7117888336971641e-14 1.0548821687936256e+05 2.0366838280689524e+05 5.0480750410301534e+03 -999 2.69819006e-01 3.883702055e-01 -1.13109911e-01
 38 3 234820 1.6626232024700046e+05 1.1173825224348366e+05 1.6839434984173016e-14 9.3714879791905652e+04 1.7042321136773436e+05 4.6467710041666214e+03 -999 2.70032004e-01 3.847065568e-01 -1.13175818e-01
 39 3 234820 1.7254480199301816e+05 1.0864093658064555e+05 1.6591447809270917e-14 8.7394408064765608e+04 1.7728977894612504e+05 4.2994891100535488e+03 -999 2.70233879e-01 3.812708594e-01 -1.13238738e-01
 40 3 234820 1.8356704608972452e+05 1.0951051755929682e+05 1.6396469519717966e-14 8.4731620791701804e+04 1.9217780864311571e+05 3.9968453712690962e+03 -999 2.70409503e-01 3.782924720e-01 -1.13294285e-01
 41 3 234820 1.5517529175955735e+05 1.0031845468773961e+05 1.6175728017564808e-14 7.6643392492588842e+04 1.6661407208065246e+05 3.5995525583629901e+03 -999 2.70544538e-01 3.756310546e-01 -1.13334911e-01
 42 3 234820 1.2157625589711158e+05 8.9975901804766560e+04 1.5896140862476472e-14 6.7203496725062592e+04 1.3118567051674033e+05 3.2592730475578082e+03 -999 2.70710878e-01 3.724217995e-01 -1.13385871e-01
 43 3 234820 1.0040505593480963e+05 8.0748604380708712e+04 1.5580110436030711e-14 5.8554849535048947e+04 1.0446355735253943e+05 2.9650087887842342e+03 -999 2.70901994e-01 3.688205485e-01 -1.13445758e-01
 44 3 234820 9.9067284135986469e+04 7.7212541270833375e+04 1.5305836713867741e-14 5.3462073030444953e+04 1.0236613464382014e+05 2.7122546402817861e+03 -999 2.71083554e-01 3.654700660e-01 -1.13504467e-01
 45 3 234820 1.0241089282588099e+05 7.6822356113170259e+04 1.5071471490564750e-14 5.0597556580228578e+04 1.0792558895011492e+05 2.4964554192055330e+03 -999 2.71243780e-01 3.625477518e-01 -1.13558464e-01
 46 3 234820 8.7542988162845082e+04 7.0579810804234701e+04 1.4845928313047720e-14 4.6295655707916674e+04 9.4367186634694401e+04 2.2045980407962620e+03 -999 2.71365318e-01 3.599658499e-01 -1.13599807e-01
 47 3 234820 6.9999789401691713e+04 6.4377808825951433e+04 1.4553948516417105e-14 4.1338011285663852e+04 7.6475551555336715e+04 1.9610996388153467e+03 -999 2.71512974e-01 3.568773765e-01 -1.13651361e-01
 48 3 234820 5.6233808762361223e+04 5.8691897636379690e+04 1.4208147214057195e-14 3.6330306086378740e+04 6.0408606969469460e+04 1.7490394287812276e+03 -999 2.71689143e-01 3.532493657e-01 -1.13714946e-01
 49 3 234820 5.0960252252101709e+04 5.5211525187770523e+04 1.3878033555498210e-14 3.2703477798261294e+04 5.3497608484660886e+04 1.5757582879512636e+03 -999 2.71866252e-01 3.496433456e-01 -1.13782147e-01
 50 3 234820 4.8799913843545175e+04 5.3228552994761871e+04 1.3590772738307658e-14 3.0280682435825729e+04 5.1178052822814228e+04 1.4331432166320353e+03 -999 2.72024214e-01 3.464316472e-01 -1.13846274e-01
 51 3 234820 4.2556407391988017e+04 5.0449402319772227e+04 1.3335165288710210e-14 2.8036879284899100e+04 4.5175415284514616e+04 1.2486680655881391e+03 -999 2.72142868e-01 3.436140409e-01 -1.13886979e-01
 52 3 234820 3.5264174133728244e+04 4.7428187435545362e+04 1.3015369482820077e-14 2.5434967498590642e+04 3.7570152548744707e+04 1.0986295141059848e+03 -999 2.72289527e-01 3.401595286e-01 -1.13935582e-01
 53 3 234820 2.8977709564380242e+04 4.4285386545923764e+04 1.2622421174447852e-14 2.2653549062466060e+04 3.0379218199717539e+04 9.7537725012598253e+02 -999 2.72468438e-01 3.359579406e-01 -1.13992561e-01
 54 3 234820 2.5511205555301047e+04 4.1718188955975194e+04 1.2220250313562448e-14 2.0380106843653644e+04 2.6243982493202115e+04 8.7902977024757899e+02 -999 2.72646919e-01 3.317079734e-01 -1.14047964e-01
 55 3 234820 2.3332005841225284e+04 3.9690082871530969e+04 1.1890517391972425e-14 1.8781197911868199e+04 2.3720590205746408e+04 8.0325426372424590e+02 -999 2.72788818e-01 3.277886747e-01 -1.14102899e-01
 56 3 234820 2.0894664738899097e+04 3.7772807145291074e+04 1.1580182796824136e-14 1.7300159738178365e+04 2.1215711116027596e+04 7.1743280257422168e+02 -999 2.72867483e-01 3.239857571e-01 -1.14100273e-01
 57 3 234820 1.8238627010245258e+04 3.5563693602110929e+04 1.1199537037418885e-14 1.5606866076985965e+04 1.8459508582078142e+04 6.5367428485242544e+02 -999 2.72956942e-01 3.191473987e-01 -1.14083896e-01
 58 3 234820 1.5978758999779498e+04 3.3175452419623041e+04 1.0727003565175217e-14 1.3837544084094743e+04 1.6186774217489692e+04 6.1703843923976217e+02 -999 2.73058244e-01 3.131423413e-01 -1.14046197e-01
 59 3 234820 1.4619467451455908e+04 3.1109417107786201e+04 1.0279074620217125e-14 1.2417729210987349e+04 1.5029406056493295e+04 6.0246411421565494e+02 -999 2.73160069e-01 3.069912077e-01 -1.13991641e-01
 60 3 234820 1.3830253910225792e+04 2.9413878245098116e+04 9.8940233741211695e-15 1.1381515581274414e+04 1.4547554290007089e+04 5.9087792892523407e+02 -999 2.73268296e-01 3.010598521e-01 -1.13930489e-01
 61 3 234820 1.2786684758780677e+04 2.7555373507537039e+04 9.4767312172269593e-15 1.0439672662337791e+04 1.3869542729550549e+04 5.9576280211440132e+02 -999 2.73378237e-01 2.937861000e-01 -1.13791946e-01
 62 3 234820 1.2106656041778460e+04 2.5471898440152931e+04 8.9579280160246849e-15 9.6911716259301556e+03 1.3584434131425453e+04 6.3626208063579770e+02 -999 2.73638744e-01 2.839301774e-01 -1.13628033e-01
 63 3 234820 1.2153380919694180e+04 2.3489620592688796e+04 8.5244170147442090e-15 9.4587758138415938e+03 1.3939142455447422e+04 7.5043396823837008e+02 -999 2.74170681e-01 2.718036773e-01 -1.13506466e-01
 64 3 234820 1.2657931904917556e+04 2.1974175519591681e+04 8.1876168304168713e-15 9.6565292483804042e+03 1.4593504502749054e+04 9.7295870615920364e+02 -999 2.74987183e-01 2.592874967e-01 -1.13539441e-01
 65 3 234820 1.3141587869822279e+04 2.0843679702886311e+04 8.0050621841364154e-15 9.9027289124388044e+03 1.5114491357379749e+04 1.3937944576657947e+03 -999 2.76045127e-01 2.466713798e-01 -1.13796091e-01
 66 3 234820 1.2737287493498579e+04 1.8904220167690881e+04 7.6101540940798980e-15 9.0186551721225896e+03 1.4602777771691473e+04 3.0655668776488642e+03 -999 2.77864672e-01 2.270373263e-01 -1.14777248e-01
 67 3 234820 1.2393140211513728e+04 1.7912425681184643e+04 7.3255476212921847e-15 8.4801332855527817e+03 1.3855119641864205e+04 8.7573729990143511e+03 -999 2.80321922e-01 1.996519325e-01 -1.17048372e-01
 68 3 234820 1.1751854135697042e+04 1.7653307687452994e+04 6.9260007348157899e-15 8.6087632085403693e+03 1.2650199729924787e+04 1.7181378631368003e+04 -999 2.81481102e-01 1.728818384e-01 -1.20506330e-01
 69 3 234820 1.1607701928809380e+04 1.8171940415171437e+04 6.3208658625529918e-15 8.7264690595237516e+03 1.1878017054889404e+04 3.2701079447223219e+04 -999 2.79684049e-01 1.537116131e-01 -1.23496219e-01
 70 3 234820 1.1507364504536994e+04 1.8516769412665879e+04 5.8429916179610348e-15 8.5715017852865658e+03 1.1800359467416145e+04 5.2684747590309380e+04 -999 2.77832452e-01 1.473614241e-01 -1.24305001e-01
 71 3 234820 8.8452833884469146e+03 1.4378449255723905e+04 5.2238905869501885e-15 7.2146622414565973e+03 9.0579990741770362e+03 1.1340848547287114e+05 -999 2.70740175e-01 1.319081734e-01 -1.25285205e-01
 72 3 234820 7.5282645337577405e+03 1.6311164908879657e+04 4.8322793212492052e-15 5.8012402912874177e+03 7.5415102476640468e+03 1.0423663328575731e+05 -999 2.60017601e-01 1.172715632e-01 -1.24269700e-01
 73 3 234820 7.0246523999917335e+03 2.2560372905508433e+04 4.3931523923933894e-15 5.0579319879186078e+03 8.2405940380569391e+03 4.2843507904687634e+04 -999 2.55586197e-01 1.120898800e-01 -1.22952735e-01
 74 3 234820 6.8119239481474451e+03 2.0939405885358843e+04 4.2167025957727307e-15 4.9059327292260632e+03 9.9969332987390535e+03 2.0295154172002720e+04 -999 2.54681432e-01 1.108265613e-01 -1.22586629e-01
 75 3 234820 6.6771155263916098e+03 1.8308629518877744e+04 4.1331359219998940e-15 4.7694187723926771e+03 1.0269432800230437e+04 1.3496535359287633e+04 -999 2.54122490e-01 1.099703911e-01 -1.22338788e-01
 76 3 234820 5.8966719011588921e+03 1.4745695871436234e+04 3.0273599457068819e-14 4.2317485717135842e+03 7.7082806295770652e+03 9.6863749640805363e+03 -999 2.52185570e-01 1.053640847e-01 -1.21075549e-01
 77 3 234820 5.3149558233733387e+03 1.1498384525827440e+04 5.2633098186111419e-14 4.0075578211999500e+03 5.6675183367554637e+03 6.3937806766341455e+03 -999 2.52319799e-01 1.007198570e-01 -1.20135244e-01
 78 3 234820 5.0027098165415528e+03 9.5831456740665108e+03 6.2603239090878427e-14 3.9899550411055639e+03 4.9294372112343908e+03 4.3823954224901217e+03 -999 2.55371200e-01 9.689520749e-02 -1.20087953e-01
 79 3 234820 4.9775167327821764e+03 8.4400075670691040e+03 5.9916290065930809e-14 4.0556431559915600e+03 4.7913906486638198e+03 3.7598685237355680e+03 -999 2.61172749e-01 9.331995041e-02 -1.20930320e-01
 80 3 234820 5.0537574223590482e+03 8.0412995125127281e+03 5.1903035927767573e-14 4.0082578298534186e+03 4.8347949959840016e+03 3.7248843432043354e+03 -999 2.65923832e-01 9.144776385e-02 -1.21974779e-01
 81 3 234820 4.4972664506710707e+03 6.6798943653954457e+03 3.8574266755347054e-14 3.2257307307542501e+03 4.4388806882641420e+03 1.3434833067576297e+04 -999 3.01470192e-01 8.357354147e-02 -1.33002022e-01
 82 3 234820 4.1539464985952682e+03 5.5468130893623256e+03 3.5701884110314754e-14 2.8389030476453813e+03 4.2096249357126653e+03 1.9765081749945610e+04 -999 3.41309250e-01 7.791909124e-02 -1.47582334e-01
 83 3 234820 3.9188686979124545e+03 4.6602992178278810e+03 3.6655671848980830e-14 2.5697064330375269e+03 4.0886079973693531e+03 1.4110681075233679e+04 -999 3.80193002e-01 7.350847187e-02 -1.62261470e-01
 84 3 234820 3.9795590638536582e+03 4.6976534123022966e+03 3.8441658368991862e-14 2.3249385522731327e+03 4.2268037549702549e+03 1.9261331639663091e+04 -999 4.17944994e-01 6.956219363e-02 -1.75089321e-01
 85 3 234820 3.7479458728300961e+03 4.2350301903115023e+03 3.8060902740482343e-14 2.1203773983544379e+03 4.0241707828459053e+03 1.5197342898489707e+04 -999 4.50855492e-01 6.640090323e-02 -1.84120353e-01
 86 3 234820 2.4043385659485857e+03 2.6931996045659421e+03 3.5384358385510049e-12 1.3337734203870702e+03 2.3202919607667022e+03 1.8970875012775497e+04 -999 5.09858690e-01 6.273853076e-02 -1.95800578e-01
 87 3 234820 2.1333438705149456e+03 2.4679863910686900e+03 3.9825420555269907e-12 8.0254749373863797e+02 2.0540204893808050e+03 1.2081726292392423e+04 -999 5.73084399e-01 6.112958601e-02 -2.03908935e-01
 88 3 234820 2.0760475790467840e+03 2.2264768419246602e+03 4.1067362345696426e-12 6.1348645924141283e+02 2.0166083473568522e+03 8.0310379447891282e+03 -999 6.08509540e-01 6.119107406e-02 -2.05912640e-01
 89 3 234820 2.0620042558752848e+03 2.0740476119957343e+03 3.8325393891437167e-12 5.2639035301182810e+02 2.0203305991799464e+03 6.7044261535849209e+03 -999 6.33609791e-01 6.159742489e-02 -2.06412851e-01
 90 3 234820 2.1446498365933094e+03 1.9395964556048680e+03 2.6843627685830253e-12 4.6243819519263775e+02 2.1268828979625077e+03 5.8549876379146863e+03 -999 6.62485555e-01 6.233216871e-02 -2.06287398e-01
 91 3 234820 1.3193189713331890e+03 1.4564733526369444e+03 7.3616186450291194e-12 3.2344409870841133e+02 1.2570419312047825e+03 5.2533804386738348e+03 -999 7.55762095e-01 6.533840419e-02 -2.01339841e-01
 92 3 234820 1.0809896648877991e+03 1.2799049346125305e+03 7.3013604310523005e-12 2.7962533676021144e+02 1.0144713839977640e+03 4.9917890806909018e+03 -999 8.01228777e-01 6.577635143e-02 -1.96643373e-01
 93 3 234820 9.4730156141259124e+02 1.1501008222339733e+03 5.9840460395060445e-12 2.5570584324808641e+02 8.7457133594489335e+02 5.2714493363017964e+03 -999 8.40807634e-01 6.531420019e-02 -1.92265323e-01
 94 3 234820 8.9797726673330362e+02 1.1504962134986267e+03 6.4148335941382481e-12 2.5174319016372613e+02 8.2305967003633339e+02 5.4442315216593679e+03 -999 8.56473550e-01 6.467562208e-02 -1.90538441e-01
 95 3 234820 8.5989791164696601e+02 1.1598313414855195e+03 6.3699031469389474e-12 2.4762354397585517e+02 7.8491047159344043e+02 6.3722630962959747e+03 -999 8.70418315e-01 6.395559483e-02 -1.89042732e-01
 96 3 234820 8.3441835460862228e+02 1.3647441243798414e+03 6.7921277546633434e-12 2.6682348238884941e+02 7.6744838853823342e+02 6.2665431220050696e+03 -999 8.80989319e-01 6.328759823e-02 -1.88321890e-01
 97 3 234820 8.1478482571427469e+02 1.6277849460783771e+03 7.4456322872987400e-12 3.0916483939578148e+02 7.5943186845787432e+02 8.7474997559661533e+03 -999 8.92753974e-01 6.251388933e-02 -1.87469210e-01
 98 3 234820 8.0033665601571397e+02 1.6922157941132493e+03 8.2787887092466011e-12 3.6209157570094732e+02 7.4483913194826732e+02 1.1454449209867880e+04 -999 9.06001543e-01 6.160275782e-02 -1.86460708e-01
 99 3 234820 7.9821186982923007e+02 1.3196189163473789e+03 8.8520835032295421e-12 3.8738937655463121e+02 7.2239673054738103e+02 9.7551162252741433e+03 -999 9.20500142e-01 6.056660893e-02 -1.85291852e-01
 100 3 234820 8.2296427148356395e+02 1.2067364201174516e+03 9.0709397957264089e-12 4.0226338910908407e+02 7.3991783926100447e+02 9.5060285788566343e+03 -999 9.31077990e-01 5.976221821e-02 -1.84309050e-01
 101 3 234820 8.2296427148356429e+02 1.2838026562977484e+03 9.4495708180631735e-12 4.1867282412762813e+02 7.4244872263107470e+02 7.3284182097370476e+03 -999 9.31077990e-01 5.976221821e-02 -1.84309050e-01
 102 3 234820 8.4034821390776244e+02 1.3335257704784217e+03 9.3742714680948241e-12 4.5413250823608183e+02 7.6097234372475839e+02 7.9721169211993974e+03 -999 9.36690377e-01 5.940205663e-02 -1.84070539e-01
 103 3 234820 8.0549281952192780e+02 1.2182409229760403e+03 6.8342560634240833e-12 3.6631260210827429e+02 7.2234841275436156e+02 9.2788317648256125e+03 -999 9.39038526e-01 5.932924879e-02 -1.83969866e-01
 104 3 234820 8.1211632200182783e+02 1.1045343906273340e+03 4.4942288479096924e-12 2.9730884226512279e+02 7.2707504351449404e+02 1.0316197539577652e+04 -999 9.42165806e-01 5.922584822e-02 -1.83865278e-01
 105 3 234820 8.6677043586023478e+02 9.7850489188880931e+02 2.4555409260961621e-12 2.7045047535874500e+02 7.8017245174923551e+02 1.1075317389329857e+04 -999 9.46875572e-01 5.903147864e-02 -1.83689472e-01
 106 3 234820 8.7068098951782633e+02 9.4783115147217370e+02 1.9258130129372546e-12 2.6550397206333213e+02 7.8347245425592484e+02 1.0972635565910716e+04 -999 9.48792823e-01 5.892089647e-02 -1.83604568e-01
 107 3 234820 8.7610176241258023e+02 9.0962937752370567e+02 1.5363405242518579e-12 2.6435820270585197e+02 7.8783561740881976e+02 1.1581764755373759e+04 -999 9.51428929e-01 5.875059644e-02 -1.83469257e-01
 108 3 234820 8.9283813307479556e+02 8.6218316091619511e+02 1.4535903602162271e-12 2.6471197145047239e+02 8.0201194103901253e+02 1.1786198256276029e+04 -999 9.55309771e-01 5.845183906e-02 -1.83195721e-01
 109 3 234820 9.1431903257709064e+02 8.3479131555388710e+02 1.4692086635762322e-12 2.6075482410280182e+02 8.2030755118184175e+02 1.1852751627824849e+04 -999 9.58088620e-01 5.816185638e-02 -1.82846027e-01
 110 3 234820 9.3414583906705479e+02 8.1698508090918108e+02 1.4652378321528055e-12 2.5496360605580153e+02 8.3790715949712171e+02 1.1924469131091613e+04 -999 9.60617754e-01 5.786704413e-02 -1.82491871e-01
 111 3 234820 9.2140398913654656e+02 7.9449880763341150e+02 1.0199096686140088e-12 2.3951488185599268e+02 8.2365043882071370e+02 1.1885461982765099e+04 -999 9.64356512e-01 5.747506398e-02 -1.82151828e-01
 112 3 234820 9.3379364462216904e+02 7.7116865071654138e+02 1.0222392925141331e-12 2.2396200494621880e+02 8.3503763370486638e+02 1.2095001165266174e+04 -999 9.69399833e-01 5.694683249e-02 -1.81705448e-01
 113 3 234820 9.4257371551348331e+02 7.5212034385027084e+02 1.0461189623147598e-12 2.0954736430472826e+02 8.4302327781586757e+02 1.1938979923678789e+04 -999 9.75051838e-01 5.637128128e-02 -1.81277698e-01
 114 3 234820 9.7965142629136278e+02 7.5208935404600186e+02 9.7007411409808939e-13 2.0154089640671378e+02 8.7739255420293296e+02 1.1890658864619854e+04 -999 9.80951638e-01 5.578322636e-02 -1.80862146e-01
 115 3 234820 9.8003972723231050e+02 7.4251996609785431e+02 8.8798294059910365e-13 1.9644755646427600e+02 8.8141223625656335e+02 1.1554687851870563e+04 -999 9.85047545e-01 5.539744854e-02 -1.80608741e-01
 116 3 234820 9.3962565088806707e+02 7.3162898949751684e+02 5.7683687383952104e-13 1.9450712580886685e+02 8.3595643618930899e+02 1.1397183431703783e+04 -999 9.89112044e-01 5.502700751e-02 -1.80383196e-01
 117 3 234820 9.4401586142744020e+02 7.2221413019240799e+02 4.8494462570345713e-13 1.9173285540831131e+02 8.3761573823086542e+02 1.1362829963418939e+04 -999 9.95016367e-01 5.452133856e-02 -1.80100347e-01
 118 3 234820 9.3304633515775981e+02 7.1989538820067628e+02 4.9847810919353042e-13 1.8702092772835778e+02 8.3345303635218249e+02 1.1301579569864327e+04 -999 1.00274596e+00 5.398290966e-02 -1.79906969e-01
 119 3 234820 9.0788097362745430e+02 7.1298254503847727e+02 4.9561888336837787e-13 1.8643930519795393e+02 8.0224165482948808e+02 1.0828775411956733e+04 -999 1.00616893e+00 5.375711386e-02 -1.79791818e-01
 120 3 234820 9.2786181415049782e+02 7.1073358669069023e+02 4.9483406747076473e-13 1.8730313149983439e+02 8.2270977904375945e+02 1.0613167401401422e+04 -999 1.00998850e+00 5.350744621e-02 -1.79638078e-01
 121 3 234820 8.7296350525373100e+02 6.9782401744901460e+02 3.3374172070161854e-13 1.8608770363400771e+02 7.7041619606738345e+02 1.0484695552481418e+04 -999 1.01392971e+00 5.323668611e-02 -1.79423173e-01
 122 3 234820 8.4176708267067090e+02 6.7474284724635368e+02 3.5375760381268454e-13 1.8465947871151491e+02 7.3950527845013198e+02 1.0464600418755463e+04 -999 1.01933256e+00 5.287256545e-02 -1.79092431e-01
 123 3 234820 8.4649414689198329e+02 6.6421486391963822e+02 3.9385733385176058e-13 1.8290290319238045e+02 7.4976670501588728e+02 1.0349912957510927e+04 -999 1.02404642e+00 5.259381735e-02 -1.78800665e-01
 124 3 234820 8.1444085527147058e+02 6.6646407766265395e+02 4.1857893230539114e-13 1.8182087052143007e+02 7.1959607879988187e+02 1.0275106616135452e+04 -999 1.02838175e+00 5.235736159e-02 -1.78499931e-01
 125 3 234820 8.2424364392745747e+02 6.5498438645114800e+02 4.2499599754031869e-13 1.8209690360622824e+02 7.2462031650675692e+02 1.0121241102985783e+04 -999 1.03091836e+00 5.222756462e-02 -1.78304466e-01
 126 3 234820 7.9909427396968977e+02 6.4343481048017441e+02 2.8314904698223204e-13 1.8058679841428756e+02 7.0113674579650024e+02 1.0114962002401644e+04 -999 1.03349827e+00 5.211044974e-02 -1.78121543e-01
 127 3 234820 7.7884136384186058e+02 6.3395599940971738e+02 2.7204956487693882e-13 1.7858289522796909e+02 6.8225698615607143e+02 1.0147179319484312e+04 -999 1.03714287e+00 5.194555312e-02 -1.77830021e-01
 128 3 234820 7.8801135606144328e+02 6.2818403777587935e+02 3.0311505101341474e-13 1.7590093008855553e+02 6.9010663977289403e+02 1.0103617797140643e+04 -999 1.04108784e+00 5.176239125e-02 -1.77455488e-01
 129 3 234820 7.9041399915258864e+02 6.2506219143188241e+02 3.0651673671945202e-13 1.7350054132652448e+02 6.9498211453091471e+02 9.9876258155165542e+03 -999 1.04316243e+00 5.166059181e-02 -1.77225284e-01
 130 3 234820 7.8770682431993998e+02 6.3340888377147849e+02 3.0717968130807599e-13 1.7254680694450980e+02 6.9268568024415879e+02 1.0023016583227520e+04 -999 1.04562483e+00 5.153445355e-02 -1.76931865e-01
 131 3 234820 7.7004177347875964e+02 6.2120308723555115e+02 2.0362346609757406e-13 1.7043047436352703e+02 6.7243125313428402e+02 9.9887887550713422e+03 -999 1.04769853e+00 5.144449767e-02 -1.76722464e-01
 132 3 234820 7.7550579888082143e+02 6.1226635770365635e+02 1.9543888756972875e-13 1.6762612520136159e+02 6.7806384672563274e+02 9.9597676624991236e+03 -999 1.05020837e+00 5.133990080e-02 -1.76485876e-01
 133 3 234820 7.7923624855156277e+02 6.1585302048904020e+02 2.1513903247148008e-13 1.6439313479146961e+02 6.8284747856868671e+02 9.9136672356799954e+03 -999 1.05298624e+00 5.122429586e-02 -1.76239975e-01
 134 3 234820 7.9392431465213861e+02 6.1290656855356747e+02 2.2308446046630979e-13 1.6209713748199164e+02 6.9676317593274109e+02 1.0037301147954755e+04 -999 1.05517861e+00 5.111773826e-02 -1.76026328e-01
 135 3 234820 8.0081633254705412e+02 6.0977214058361255e+02 2.2448101739605147e-13 1.6044829795892144e+02 7.0511258699007999e+02 9.8891079438663728e+03 -999 1.05647411e+00 5.104057316e-02 -1.75876456e-01
 136 3 234820 7.7238356625941344e+02 6.0216464009085178e+02 2.3538946335228892e-13 1.6108969816579472e+02 6.7495794835180061e+02 1.0082519136837394e+04 -999 1.05856711e+00 5.091933745e-02 -1.75656268e-01
 137 3 234820 7.8969242062131002e+02 5.9838649940439063e+02 3.3268624760432306e-13 1.5803016869357424e+02 6.9187648474302637e+02 1.0306148270462230e+04 -999 1.06087462e+00 5.077087754e-02 -1.75399994e-01
 138 3 234820 7.9279148778442493e+02 5.9688074934869519e+02 4.0463844795943256e-13 1.5428476213857388e+02 6.9618727461413926e+02 1.0321972720486459e+04 -999 1.06270833e+00 5.065125453e-02 -1.75217573e-01
 139 3 234820 8.1812411860290490e+02 6.1593157058011911e+02 4.8279434496844289e-13 1.5258307388423813e+02 7.2079980534547099e+02 1.0647199354497045e+04 -999 1.06466583e+00 5.050265144e-02 -1.74995854e-01
 140 3 234820 8.2550533447766270e+02 6.0700105418416467e+02 4.9041428868302628e-13 1.5079186622203565e+02 7.2834828437946953e+02 1.0821138111813258e+04 -999 1.06573936e+00 5.039821722e-02 -1.74836531e-01
 141 3 234820 7.9641381138264944e+02 5.9286975350982641e+02 3.4203043998125841e-13 1.5002245364786560e+02 6.9803097795070141e+02 1.1098429576281740e+04 -999 1.06700563e+00 5.033559109e-02 -1.74793546e-01