TITLE = "005.02 ALPHA 2.50 GRIDLEVEL 2"

VARIABLES = "ITERATION"  "GRID_LEVEL"  "GRID_SIZE"  "CONTINUITY"  "MOMENTUMX"  "MOMENTUMY"  "MOMENTUMZ"  "ENERGY"  "TURB1"  "TURB2"  "CL_TOT"  "CD_TOT"  "CM_TOT"

DATASETAUXDATA ParticipantID   = "005"
DATASETAUXDATA SubmissionDate  = "10-31-2024"
DATASETAUXDATA Name            = "Jeffrey A. Housman"
DATASETAUXDATA Email           = "jeffrey.a.housman@nasa.gov"
DATASETAUXDATA Institution     = "NASA Ames Research Center"
DATASETAUXDATA SolverName      = "LAVA Curvilinear"
DATASETAUXDATA BasicAlgorithm  = "RANS"
DATASETAUXDATA TurbulenceModel = "SA-RC-comp-neg"
DATASETAUXDATA GridId          = "Multiblock"
DATASETAUXDATA Discretization  = "Finite difference"
DATASETAUXDATA Order           = "2"
DATASETAUXDATA DistanceCalc    = "Exact"
DATASETAUXDATA Notes           = " "

ZONE T = "005.02 - Alpha 2.50 - Grid Level 2"
AUXDATA Tstatic         = "271.0"
AUXDATA Deltat          = "-999"
AUXDATA GridFileName    = "ONERA-OAT15A_230mmChord_780mmSpan_upZ_2024_06_25-Structured_23mm_Level-2.x"
AUXDATA Misc            = " "
 0 2 119662 1.7077830022550820e+05 3.5143827249137638e+05 3.0558354260881190e-14 1.4606879381976533e+05 1.7159509313807884e+05 5.1381189092460863e+05 -999 6.40593373e-03 4.527052814e-01 -2.98214860e-03
 1 2 119662 2.3445247527798478e+05 2.8210053373613983e+05 2.7485784835434581e-14 1.2336501248531051e+05 2.2640296164402005e+05 3.3072864649444958e+05 -999 3.71605312e-02 4.460984788e-01 -1.73251172e-02
 2 2 119662 2.8427291451739444e+05 2.5205010333140180e+05 2.5145538866432502e-14 1.3742020211828878e+05 2.7129731845271535e+05 2.1245970537157339e+05 -999 7.05192241e-02 4.504533861e-01 -3.29837014e-02
 3 2 119662 3.3567587596348324e+05 2.3211237413824088e+05 2.3338424851735626e-14 1.5887469609897092e+05 3.1989706506256765e+05 1.3542405591634678e+05 -999 9.77365784e-02 4.593315560e-01 -4.58910315e-02
 4 2 119662 3.8647900141089159e+05 2.1465105802317549e+05 2.1932064593171233e-14 1.8680014841547879e+05 3.7151093874292111e+05 8.4896382850240887e+04 -999 1.23134422e-01 4.712492490e-01 -5.68664716e-02
 5 2 119662 4.3466095702518843e+05 2.1562968339459141e+05 2.0823297516153466e-14 2.1689124917832323e+05 4.2418870568038133e+05 4.2476344014612187e+04 -999 1.43292247e-01 4.836102484e-01 -6.51794651e-02
 6 2 119662 3.9655948113095504e+05 2.5462295109704317e+05 1.9942167354670938e-14 2.2946691544179546e+05 3.8903256286055088e+05 3.4318632776823462e+04 -999 1.56974686e-01 4.892588340e-01 -7.14183406e-02
 7 2 119662 3.9314005869106919e+05 2.7426080568037403e+05 1.9143578268562682e-14 2.3389504962903043e+05 3.8234251919628354e+05 2.8402825869295171e+04 -999 1.67668423e-01 4.904523977e-01 -7.67995302e-02
 8 2 119662 4.2848501116259594e+05 2.7241403625537455e+05 1.8583439982889595e-14 2.3072402801875846e+05 4.3098785122287594e+05 2.4320414035972408e+04 -999 1.76108408e-01 4.859468360e-01 -8.08898904e-02
 9 2 119662 4.4837802595284453e+05 2.5285840400142956e+05 1.8179036718985693e-14 2.3160984176550506e+05 4.5455770072736050e+05 2.1534501351084746e+04 -999 1.84377840e-01 4.779360567e-01 -8.43642138e-02
 10 2 119662 4.6416661006900389e+05 2.5004748195552768e+05 1.7977744190979352e-14 2.2568429992640589e+05 4.8095302889677510e+05 1.9253067983627920e+04 -999 1.90267168e-01 4.717549905e-01 -8.66202719e-02
 11 2 119662 3.8344447166547540e+05 2.1539106153377442e+05 1.7776916099496364e-14 2.0769165097033913e+05 3.9137378809753089e+05 1.7254466587787014e+04 -999 1.97197705e-01 4.641022645e-01 -8.93146318e-02
 12 2 119662 3.6247359002817818e+05 2.1776352270642106e+05 1.7635298629098837e-14 1.9996708218535807e+05 3.6479833152142441e+05 1.5662405201679489e+04 -999 2.02606671e-01 4.579719113e-01 -9.14217932e-02
 13 2 119662 3.4385356456462620e+05 1.9186502187864739e+05 1.7589848182913266e-14 1.9006990138692866e+05 3.4284767282490135e+05 1.4355936103323867e+04 -999 2.06800297e-01 4.526701028e-01 -9.31365993e-02
 14 2 119662 3.7659181861443876e+05 2.0084402158484576e+05 1.7600244928482245e-14 1.8806759654124847e+05 3.8782708282339585e+05 1.3204575049686217e+04 -999 2.09626911e-01 4.483695717e-01 -9.43853078e-02
 15 2 119662 3.4105032232450065e+05 1.6903095794735407e+05 1.7570241910294987e-14 1.7725038217576774e+05 3.4735678392744728e+05 1.2242515269584552e+04 -999 2.11595600e-01 4.447576672e-01 -9.53383520e-02
 16 2 119662 3.1814404657930892e+05 1.7658361959840613e+05 1.7462484154013902e-14 1.7014786815858047e+05 3.2450766213880369e+05 1.1160579073181903e+04 -999 2.13308647e-01 4.409945447e-01 -9.62249990e-02
 17 2 119662 2.8292799602492881e+05 1.6914238342870754e+05 1.7334730827122604e-14 1.5626693231135525e+05 2.8842245802021126e+05 1.0276771705326060e+04 -999 2.15045990e-01 4.368258472e-01 -9.71357457e-02
 18 2 119662 2.9410727862218180e+05 1.6455959559678540e+05 1.7230564614993490e-14 1.5299809689080875e+05 2.9927706419826084e+05 9.5220515260947086e+03 -999 2.17081786e-01 4.315824811e-01 -9.81707096e-02
 19 2 119662 2.6604281615746964e+05 1.4597879475260945e+05 1.7114651388515086e-14 1.4168338750888821e+05 2.7092857033503719e+05 8.8621154765554256e+03 -999 2.18309318e-01 4.280832956e-01 -9.87457468e-02
 20 2 119662 3.1157814367377077e+05 1.7218579077135018e+05 1.6994146151591383e-14 1.4769636937612720e+05 3.2701183685165533e+05 8.3051104189456964e+03 -999 2.19669418e-01 4.238121541e-01 -9.93460699e-02
 21 2 119662 2.5828958753909124e+05 1.5887530373658982e+05 1.6855614256554212e-14 1.3194733671785219e+05 2.7373211615617562e+05 7.6583307906008486e+03 -999 2.20574757e-01 4.201431795e-01 -9.97182131e-02
 22 2 119662 2.1703109465946289e+05 1.2986269488088037e+05 1.6692430499418695e-14 1.1871581852709499e+05 2.2213913270436064e+05 7.0871635864313475e+03 -999 2.21542916e-01 4.156760303e-01 -1.00108381e-01
 23 2 119662 1.9952155654437045e+05 1.2464243121291713e+05 1.6540367794531318e-14 1.1052575885544467e+05 2.0130739779609596e+05 6.5892803316904592e+03 -999 2.22313714e-01 4.115869591e-01 -1.00415372e-01
 24 2 119662 2.2712865199822109e+05 1.2737045227345683e+05 1.6418071583499675e-14 1.0994677310878092e+05 2.3639780526467203e+05 6.1579000772645013e+03 -999 2.23001125e-01 4.075494067e-01 -1.00687533e-01
 25 2 119662 2.0372397558044925e+05 1.0600026630281997e+05 1.6344206825230062e-14 1.0223570063125950e+05 2.1023820071382713e+05 5.7883638753687646e+03 -999 2.23446781e-01 4.046727025e-01 -1.00864010e-01
 26 2 119662 1.8250414185969389e+05 1.0722256666166395e+05 1.6196859243768354e-14 9.5617775775780974e+04 1.8943161714164814e+05 5.3338928641768180e+03 -999 2.23850683e-01 4.015043159e-01 -1.01021272e-01
 27 2 119662 1.5623609415017930e+05 1.0094062724182456e+05 1.6007032570357441e-14 8.6056725720945033e+04 1.6155633783221783e+05 4.9341460499941077e+03 -999 2.24297451e-01 3.977653429e-01 -1.01198227e-01
 28 2 119662 1.4656314229073067e+05 9.4402804571665329e+04 1.5808259749918438e-14 7.9150582140201092e+04 1.4926305483574490e+05 4.5872816650790528e+03 -999 2.24727797e-01 3.939031269e-01 -1.01373415e-01
 29 2 119662 1.5740163195923038e+05 9.1499634369579857e+04 1.5614905417340488e-14 7.6760444092407226e+04 1.6149828697161030e+05 4.2842436412075849e+03 -999 2.25108216e-01 3.902529177e-01 -1.01532452e-01
 30 2 119662 1.4858045110194106e+05 8.4616718320520362e+04 1.5482048419627599e-14 7.2393513033854179e+04 1.5509447770423206e+05 4.0231353213250841e+03 -999 2.25348584e-01 3.877981854e-01 -1.01634272e-01
 31 2 119662 1.2748205652380607e+05 7.9162031586140773e+04 1.5286542530259175e-14 6.6262371911564434e+04 1.3376442537355563e+05 3.7196266503070715e+03 -999 2.25583073e-01 3.849063496e-01 -1.01731476e-01
 32 2 119662 1.0629395756707730e+05 7.4835788605505542e+04 1.5043768491833331e-14 5.9442924362241443e+04 1.1022760507214755e+05 3.4449840273739956e+03 -999 2.25854061e-01 3.814560863e-01 -1.01844154e-01
 33 2 119662 9.8042283081224930e+04 7.0557357398928332e+04 1.4798483033360542e-14 5.4280270432598852e+04 9.9596859870627653e+04 3.2052605909744211e+03 -999 2.26113555e-01 3.780239753e-01 -1.01952708e-01
 34 2 119662 1.0673835259229703e+05 7.0428602721591757e+04 1.4577906823555804e-14 5.2331801300477782e+04 1.1046703956820656e+05 2.9965873187436960e+03 -999 2.26337550e-01 3.749466723e-01 -1.02046651e-01
 35 2 119662 1.0436483310235465e+05 6.5346934183955695e+04 1.4411817096438886e-14 5.0323031622075920e+04 1.0755501632379135e+05 2.8155805946770711e+03 -999 2.26506121e-01 3.725515883e-01 -1.02116981e-01
 36 2 119662 8.9052777687024718e+04 6.3932353961203560e+04 1.4211959742195713e-14 4.5925804308056511e+04 9.3858892416036702e+04 2.6024767819007757e+03 -999 2.26650439e-01 3.700594263e-01 -1.02174420e-01
 37 2 119662 7.1749703264815413e+04 5.8110232725494287e+04 1.3977395356954176e-14 4.0698526084613768e+04 7.5459298571251318e+04 2.4118249620999791e+03 -999 2.26818012e-01 3.671680574e-01 -1.02241078e-01
 38 2 119662 6.2637643514250311e+04 5.3061732624626544e+04 1.3704533067682706e-14 3.6362475430293467e+04 6.3593719387087127e+04 2.2404842062512475e+03 -999 2.27001850e-01 3.640063369e-01 -1.02314158e-01
 39 2 119662 6.5896655223443173e+04 5.1672793331194101e+04 1.3434966849794766e-14 3.4263744802389832e+04 6.7634849855848035e+04 2.0893797958154528e+03 -999 2.27177134e-01 3.609944224e-01 -1.02383837e-01
 40 2 119662 6.5355292343011788e+04 4.9711699191876069e+04 1.3242966133773956e-14 3.2866183574262330e+04 6.7784569303185941e+04 1.9598901604104587e+03 -999 2.27305300e-01 3.587763753e-01 -1.02434836e-01
 41 2 119662 5.5637671684792214e+04 4.7360022655819121e+04 1.3030383854865714e-14 3.0211017018085931e+04 5.8835827517614453e+04 1.7924879334063519e+03 -999 2.27415970e-01 3.564509761e-01 -1.02477559e-01
 42 2 119662 4.4293070644896397e+04 4.4597648615934668e+04 1.2770834804431600e-14 2.7156806213960121e+04 4.6740080868053614e+04 1.6418804648328953e+03 -999 2.27549415e-01 3.536768189e-01 -1.02529562e-01
 43 2 119662 3.7729219130665639e+04 4.1623470882933267e+04 1.2476254802821740e-14 2.4413140450227867e+04 3.8403608784414755e+04 1.5120182853207673e+03 -999 2.27700755e-01 3.505637966e-01 -1.02588919e-01
 44 2 119662 3.7850187241262924e+04 4.0128815661330940e+04 1.2203371882901899e-14 2.2893173427731359e+04 3.8656612736934854e+04 1.4000294292886585e+03 -999 2.27837307e-01 3.477747866e-01 -1.02642770e-01
 45 2 119662 3.8875699846414827e+04 3.9822768032194763e+04 1.1978619360380841e-14 2.2028160145758433e+04 4.0557108498515903e+04 1.3021597996653620e+03 -999 2.27951268e-01 3.454475351e-01 -1.02688087e-01
 46 2 119662 3.3295840208171619e+04 3.7542855161882748e+04 1.1760013027821723e-14 2.0624553053963555e+04 3.5121988159617897e+04 1.1760075647718786e+03 -999 2.28043625e-01 3.431496231e-01 -1.02723965e-01
 47 2 119662 2.7090039361998377e+04 3.5483935062532357e+04 1.1488590445342687e-14 1.9050913083479336e+04 2.8352561814657718e+04 1.0665027462841872e+03 -999 2.28156927e-01 3.403606659e-01 -1.02768398e-01
 48 2 119662 2.2992397444527647e+04 3.3629093997714233e+04 1.1186607976584266e-14 1.7556640963928217e+04 2.3243346068207189e+04 9.7083224690381348e+02 -999 2.28287785e-01 3.371710847e-01 -1.02819972e-01
 49 2 119662 2.1947060168125739e+04 3.2303610580275104e+04 1.0910616733291873e-14 1.6513397730667431e+04 2.1947626391694550e+04 8.9096547332757621e+02 -999 2.28411292e-01 3.341726398e-01 -1.02868870e-01
 50 2 119662 2.1652657755536879e+04 3.1400458525521779e+04 1.0649933810264751e-14 1.5771804363448322e+04 2.1815446611790918e+04 8.2315653917568022e+02 -999 2.28520004e-01 3.315170169e-01 -1.02912372e-01
 51 2 119662 1.9361554045246081e+04 3.0126517749336126e+04 1.0405111371920936e-14 1.4945293688246875e+04 1.9549387966956456e+04 7.4336378391490712e+02 -999 2.28600181e-01 3.288914901e-01 -1.02941072e-01
 52 2 119662 1.6893093636201418e+04 2.8742268945482647e+04 1.0124779387486929e-14 1.3979859191039974e+04 1.6882878641320091e+04 6.7116307190396140e+02 -999 2.28694998e-01 3.256837653e-01 -1.02973525e-01
 53 2 119662 1.5079506769291593e+04 2.7336736609133695e+04 9.7859662518835370e-15 1.2957242911400945e+04 1.4815671814380530e+04 6.1754380228902949e+02 -999 2.28800021e-01 3.219555643e-01 -1.03006404e-01
 54 2 119662 1.4147234485589091e+04 2.6146387363450660e+04 9.4343495607689627e-15 1.2066191678967700e+04 1.3880145311538234e+04 5.7108956125815155e+02 -999 2.28896578e-01 3.182709714e-01 -1.03032327e-01
 55 2 119662 1.3584979988754929e+04 2.5191610473827513e+04 9.1512831330547456e-15 1.1339203239575541e+04 1.3476658055810241e+04 5.3656520007499603e+02 -999 2.28976428e-01 3.149246997e-01 -1.03049513e-01
 56 2 119662 1.2503400799546895e+04 2.4116940116891841e+04 8.8560987287603082e-15 1.0594667699794923e+04 1.2531820889203404e+04 5.0395140435501878e+02 -999 2.29017114e-01 3.113456777e-01 -1.03031470e-01
 57 2 119662 1.1399738394174941e+04 2.2899692483815095e+04 8.5205197209112565e-15 9.7404379880675406e+03 1.1594466970845593e+04 4.8367117480105190e+02 -999 2.29057701e-01 3.068416562e-01 -1.02993509e-01
 58 2 119662 1.0570350746865770e+04 2.1652898097803147e+04 8.1609869457531396e-15 8.8887430352387237e+03 1.1002704826191946e+04 4.7171665438222112e+02 -999 2.29092990e-01 3.015863662e-01 -1.02927288e-01
 59 2 119662 1.0120367599573463e+04 2.0602126415693510e+04 7.8133876574960918e-15 8.2332245911821101e+03 1.0829081981282761e+04 4.7832053678601596e+02 -999 2.29119275e-01 2.964447144e-01 -1.02840097e-01
 60 2 119662 9.9141517372765738e+03 1.9747810742773665e+04 7.5363792657425387e-15 7.7767088324773740e+03 1.0879118808109053e+04 4.7540667983782077e+02 -999 2.29142807e-01 2.916011646e-01 -1.02741709e-01
 61 2 119662 9.5185675561060489e+03 1.8780816841035710e+04 7.2319124929517242e-15 7.3220312022230491e+03 1.0752126363875845e+04 4.8764977910921840e+02 -999 2.29157555e-01 2.857385670e-01 -1.02567455e-01
 62 2 119662 9.3416518218102410e+03 1.7717471020421421e+04 6.9198059847789484e-15 7.0073734890237210e+03 1.0808606651138563e+04 5.2298299754081108e+02 -999 2.29227161e-01 2.780290493e-01 -1.02323091e-01
 63 2 119662 9.4739621353999300e+03 1.6745529680883894e+04 6.6530875264787630e-15 6.9595149043060737e+03 1.1078971595695932e+04 5.4764227784847060e+02 -999 2.29407410e-01 2.692081967e-01 -1.02043030e-01
 64 2 119662 9.7527145038200488e+03 1.5984929645925367e+04 6.4431199166268131e-15 7.0936307023635381e+03 1.1411304726399683e+04 5.6730490853282663e+02 -999 2.29728681e-01 2.605436006e-01 -1.01801648e-01
 65 2 119662 1.0005991488929731e+04 1.5374081694427421e+04 6.2842925100587446e-15 7.2774467611458649e+03 1.1670504884749309e+04 5.8037860351773736e+02 -999 2.30142702e-01 2.522835212e-01 -1.01659929e-01
 66 2 119662 1.0061253493727887e+04 1.4514092788600039e+04 6.1494454746106725e-15 7.0871328809271618e+03 1.1683944831199284e+04 6.1889301824406073e+02 -999 2.31103410e-01 2.410418549e-01 -1.01656071e-01
 67 2 119662 1.0066725665112233e+04 1.3671815879737242e+04 6.0732611990329111e-15 6.8693804590847440e+03 1.1554051354825509e+04 7.4362626964356764e+02 -999 2.32935578e-01 2.259848080e-01 -1.01974402e-01
 68 2 119662 9.9217898808217760e+03 1.3179169867357947e+04 5.9475611631319424e-15 6.6447264549112588e+03 1.1224184224856217e+04 1.0923733999398812e+03 -999 2.35517951e-01 2.106685587e-01 -1.02847574e-01
 69 2 119662 9.6553351601219201e+03 1.2953900926966648e+04 5.8072059268969209e-15 6.4941771740126360e+03 1.0760353428648221e+04 1.9083687670921984e+03 -999 2.38462829e-01 1.965515248e-01 -1.04297775e-01
 70 2 119662 9.3148765122235600e+03 1.2940689887299608e+04 5.5924989356021007e-15 6.4647575824959767e+03 1.0211196483481446e+04 2.9900623186835978e+03 -999 2.41501565e-01 1.832261727e-01 -1.06321899e-01
 71 2 119662 8.4417726280634670e+03 1.1891071306787157e+04 5.2348995538126342e-15 6.4248457503252212e+03 9.0165161153765985e+03 4.9015804186835621e+03 -999 2.45471974e-01 1.634036303e-01 -1.10470447e-01
 72 2 119662 7.5209010735669963e+03 1.1079947781749148e+04 4.7886328552694790e-15 6.3691223124221888e+03 7.8374364296537115e+03 6.4628158233494869e+03 -999 2.46885677e-01 1.456748634e-01 -1.15115941e-01
 73 2 119662 6.8419714207079578e+03 1.0459484990272855e+04 4.3573588922208743e-15 6.3562299020334121e+03 7.0177872115145847e+03 9.1021810053070385e+03 -999 2.44295694e-01 1.315817885e-01 -1.18859383e-01
 74 2 119662 6.4718648626652866e+03 1.0640391695943274e+04 3.9934887949366903e-15 5.8172402860203156e+03 6.6303430560857460e+03 1.3449882363227392e+04 -999 2.38581143e-01 1.217367369e-01 -1.20643307e-01
 75 2 119662 6.3236967502828675e+03 1.0846987627086117e+04 3.7460540200193928e-15 5.2798297667120269e+03 6.4368048752637351e+03 1.4722517291597511e+04 -999 2.35502263e-01 1.185034641e-01 -1.20744543e-01
 76 2 119662 5.3919870637183712e+03 1.0360153675387353e+04 3.5572724014488218e-15 4.4748696032070047e+03 5.4173078391388799e+03 1.4535974116049016e+04 -999 2.27888356e-01 1.122796006e-01 -1.20092840e-01
 77 2 119662 4.6988555161255563e+03 1.0376244659935897e+04 3.4614880344485745e-15 3.7800369725563887e+03 4.6797386052892998e+03 1.2004060026066265e+04 -999 2.18748915e-01 1.056265944e-01 -1.18398584e-01
 78 2 119662 4.3215013872170321e+03 9.7853772301746048e+03 3.3303081490918785e-15 3.3526881937628941e+03 4.3228772142055705e+03 8.7315681150677974e+03 -999 2.14523639e-01 1.020658773e-01 -1.17015750e-01
 79 2 119662 4.1459179150566524e+03 8.7922208771922833e+03 3.3031689866829477e-15 3.2319553281060967e+03 4.0934822910693383e+03 6.4533613276299020e+03 -999 2.11703642e-01 9.841712295e-02 -1.15646121e-01
 80 2 119662 4.0403068757240535e+03 8.3068439772317888e+03 3.1762330312703065e-15 3.3223392132939480e+03 3.9714517208036646e+03 4.6421593848095636e+03 -999 2.11587454e-01 9.711845274e-02 -1.15294535e-01
 81 2 119662 3.5685264182010364e+03 6.9316396548172806e+03 3.3495424948367278e-15 3.2769016168935727e+03 3.4855106417129655e+03 3.5931155445955974e+03 -999 2.14448277e-01 9.328206429e-02 -1.15104977e-01
 82 2 119662 3.5742329190464920e+03 5.9151240824993083e+03 3.6676654593891226e-15 3.4347266237901435e+03 3.4234598683416193e+03 4.3707058137273552e+03 -999 2.24513708e-01 8.797220505e-02 -1.16718277e-01
 83 2 119662 4.1827470804814038e+03 6.3724909688318357e+03 3.8182929440906101e-15 3.6233084227029562e+03 4.0376449446570828e+03 6.1259839309480194e+03 -999 2.40602356e-01 8.343554981e-02 -1.21044469e-01
 84 2 119662 4.3956660123029533e+03 7.2959391163096498e+03 3.6468852674977833e-15 3.5576550434513942e+03 4.2026812206111763e+03 6.7816178627728204e+03 -999 2.52414942e-01 8.088121419e-02 -1.25086899e-01
 85 2 119662 4.5864276350911350e+03 8.1798422948860543e+03 3.5033454387821100e-15 3.3607393524510626e+03 4.3209201520190381e+03 7.1650708424175400e+03 -999 2.63125634e-01 7.885653188e-02 -1.29214015e-01
 86 2 119662 3.6269025831784488e+03 5.7047449118796812e+03 3.5474597146119336e-15 2.7986573081688039e+03 3.6669808681273007e+03 1.9438901458204178e+04 -999 2.83088358e-01 7.592250692e-02 -1.37851985e-01
 87 2 119662 3.1623446085931578e+03 4.7381101404767205e+03 3.5980824389443446e-15 2.5177775371101716e+03 3.4139202480927870e+03 1.6455719442107158e+04 -999 3.03389962e-01 7.309539453e-02 -1.47536811e-01
 88 2 119662 2.7743247477727218e+03 6.8216173321348188e+03 3.4742755177048847e-15 2.3288775082084926e+03 3.4575502603405221e+03 7.5654163054394458e+03 -999 3.15255806e-01 7.138446372e-02 -1.53409889e-01
 89 2 119662 2.6150651598357995e+03 6.0715446526198457e+03 3.2017340228525425e-15 2.2368634922293222e+03 2.8751053627166084e+03 5.3632751886666902e+03 -999 3.19045525e-01 7.082949403e-02 -1.55236453e-01
 90 2 119662 2.4912668716875050e+03 5.7590653530329555e+03 3.1078484257366952e-15 2.1772405227565896e+03 2.7375018722026089e+03 5.5964431408551000e+03 -999 3.22831214e-01 7.027657842e-02 -1.57029412e-01
 91 2 119662 2.1844059715971839e+03 2.5539402694154928e+03 3.5392243231503633e-15 1.8666451056186474e+03 2.0454605864128478e+03 7.9782261515168657e+03 -999 3.48807502e-01 6.668235336e-02 -1.68661018e-01
 92 2 119662 2.0206829692844365e+03 2.6388650377695826e+03 3.6798758966473381e-15 1.7059200545538979e+03 1.8917294337309661e+03 1.1284142428122943e+04 -999 3.76712228e-01 6.316332600e-02 -1.79163687e-01
 93 2 119662 1.9507290449139066e+03 2.8553956093665352e+03 3.7114719706027654e-15 1.6149029862727041e+03 1.8862462110008973e+03 1.4577150077778406e+04 -999 4.07854672e-01 5.998876143e-02 -1.88468525e-01
 94 2 119662 2.1692746920178379e+03 2.9981504075693788e+03 3.9156682908749630e-15 1.4299576812154958e+03 2.1391272441203701e+03 1.4608551353309769e+04 -999 4.41809811e-01 5.729334184e-02 -1.96090665e-01
 95 2 119662 2.4514278085767805e+03 3.0120887319646404e+03 4.0625179156454704e-15 1.1810160505190613e+03 2.4963479840581281e+03 1.4109963514083143e+04 -999 4.67631360e-01 5.573880944e-02 -2.00122122e-01
 96 2 119662 1.8332485962528260e+03 2.3780300332777888e+03 3.5963854013406045e-15 7.8945942519326582e+02 1.8032575518938420e+03 1.1354769072378836e+04 -999 4.99491628e-01 5.465364555e-02 -2.03050255e-01
 97 2 119662 1.6361945852537235e+03 1.8114579629424720e+03 3.8418417594181486e-15 5.6317747118116210e+02 1.6019726000250398e+03 9.8522040532797309e+03 -999 5.36743518e-01 5.399795846e-02 -2.05214729e-01
 98 2 119662 1.6372567376112552e+03 1.4904008361115029e+03 4.3737977239155788e-15 4.6136632172687439e+02 1.6325836988608305e+03 7.2876271627753731e+03 -999 5.71436458e-01 5.404873678e-02 -2.06026342e-01
 99 2 119662 1.8151608636578119e+03 1.3904033267451068e+03 5.0107973776889497e-15 4.0586000248476148e+02 1.8534397548611455e+03 5.9616558428225580e+03 -999 6.00650011e-01 5.454554420e-02 -2.05773472e-01
 100 2 119662 2.0717669474648051e+03 1.3930848497744078e+03 5.6573490184479522e-15 3.7347841007231688e+02 2.1546318701966352e+03 5.0111652793876510e+03 -999 6.22479772e-01 5.518825982e-02 -2.04987565e-01
 101 2 119662 1.0977256685343536e+03 1.0247164246520038e+03 8.1272672321595508e-14 2.9073587809999748e+02 1.0571220945585760e+03 4.5739554976413774e+03 -999 6.85400456e-01 5.744299192e-02 -1.99342298e-01
 102 2 119662 8.4688014081657116e+02 8.7620917473563316e+02 3.8549752986087628e-14 2.2634716658238335e+02 8.0076549548899027e+02 4.1762814270173767e+03 -999 7.34498491e-01 5.884226968e-02 -1.93139063e-01
 103 2 119662 7.5201040240497707e+02 8.0498436755031560e+02 2.2341351039811348e-14 1.9858442447836788e+02 7.0228338901318716e+02 3.8234731931662927e+03 -999 7.60426294e-01 5.885308086e-02 -1.89399716e-01
 104 2 119662 6.9204965328687524e+02 7.4502707309561572e+02 2.4091114340580715e-14 1.7422885310123658e+02 6.3586170993525946e+02 3.7992632026172500e+03 -999 7.83648084e-01 5.814580517e-02 -1.86220909e-01
 105 2 119662 6.7010757959046759e+02 7.2609035032345298e+02 2.2287043413933724e-14 1.7070954976628417e+02 6.1080297031773262e+02 3.6850717458590061e+03 -999 7.97112469e-01 5.721986005e-02 -1.84611871e-01
 106 2 119662 6.3119567037917761e+02 9.3582710832788393e+02 4.9759199247020647e-14 1.7946927777665965e+02 5.7771052418077136e+02 6.7768365007376879e+03 -999 8.10404204e-01 5.592553121e-02 -1.83674806e-01
 107 2 119662 5.9588028141804591e+02 1.0638582705586255e+03 9.2285943917227414e-14 1.8354573261136849e+02 5.4838711012754038e+02 8.7628948608516148e+03 -999 8.25250410e-01 5.448990969e-02 -1.82531743e-01
 108 2 119662 5.6385989920398185e+02 8.9103512047026948e+02 1.3561330941038578e-13 1.7780487323220535e+02 5.1132456423968245e+02 8.2179047731186947e+03 -999 8.42107416e-01 5.285502051e-02 -1.81145895e-01
 109 2 119662 5.5574466867034278e+02 7.0468417837600725e+02 1.7520249166729902e-13 1.7355408397764370e+02 4.9808266568134030e+02 6.9166172412707074e+03 -999 8.60524471e-01 5.104531339e-02 -1.79499135e-01
 110 2 119662 5.4426962113126751e+02 6.5739686956280673e+02 1.9123820044633803e-13 1.7337249960105100e+02 4.8619073544727127e+02 6.0758195649817053e+03 -999 8.70593664e-01 5.003221999e-02 -1.78493920e-01
 111 2 119662 5.4426962113126740e+02 6.8360495021568101e+02 1.9167123745160555e-13 1.7442805655453716e+02 4.8706729319366497e+02 5.2918033777220007e+03 -999 8.70593664e-01 5.003221999e-02 -1.78493920e-01
 112 2 119662 5.6272417458782934e+02 7.4323650215144551e+02 1.9129446688136006e-13 1.8273501907968830e+02 5.0694881547325650e+02 5.4659017734643376e+03 -999 8.74191880e-01 4.956945267e-02 -1.78050286e-01
 113 2 119662 5.6800078791399949e+02 6.8589262321490389e+02 1.7684897069055268e-13 1.6780766248153054e+02 5.0812365220948362e+02 6.0571896672233843e+03 -999 8.77063224e-01 4.935578171e-02 -1.77850813e-01
 114 2 119662 6.4727355592643698e+02 6.2634800257754341e+02 1.9359860320708930e-13 1.6852256219491915e+02 5.8459632257150895e+02 5.9488003631315642e+03 -999 8.80685438e-01 4.904997082e-02 -1.77608765e-01
 115 2 119662 7.0216853069435672e+02 5.8423723233397561e+02 2.2008978650314952e-13 1.7224337375759154e+02 6.3713971274352264e+02 6.0293817100392880e+03 -999 8.84802536e-01 4.863270985e-02 -1.77299895e-01
 116 2 119662 7.0821900766223393e+02 5.6615277082058651e+02 1.8689474154346046e-13 1.6824735636320432e+02 6.4190501601196638e+02 5.6313876827998211e+03 -999 8.87307289e-01 4.834635625e-02 -1.77101380e-01
 117 2 119662 7.1374575777834082e+02 5.4536546542515271e+02 1.7633369298486543e-13 1.6499512573571891e+02 6.4766085372836699e+02 6.0020734153032508e+03 -999 8.90688863e-01 4.792993275e-02 -1.76792071e-01
 118 2 119662 7.1580741334677646e+02 5.2694312674202854e+02 2.0011717022762813e-13 1.6387833281778734e+02 6.5036449352563079e+02 6.2952475077925419e+03 -999 8.95179627e-01 4.731787664e-02 -1.76278279e-01
 119 2 119662 7.6286860026881186e+02 5.1623116046545044e+02 2.2408157883411506e-13 1.6234957094937207e+02 6.9292395012304689e+02 6.2221448106130929e+03 -999 8.98916015e-01 4.675105060e-02 -1.75718574e-01
 120 2 119662 8.1809008689697987e+02 5.1182072308750861e+02 2.3777534303617232e-13 1.5912709823076153e+02 7.5182060310583097e+02 6.0603363638641858e+03 -999 9.01965026e-01 4.631673531e-02 -1.75326150e-01
 121 2 119662 7.6985143748387270e+02 4.9674752232328382e+02 2.2855227769420412e-13 1.5404357181754631e+02 7.0451659897342768e+02 6.3091264363088367e+03 -999 9.06720943e-01 4.574748235e-02 -1.74985280e-01
 122 2 119662 7.8182992493159566e+02 4.8943494541205223e+02 3.0920373462950164e-13 1.4937727756339180e+02 7.0901000994569654e+02 6.3756585036572615e+03 -999 9.13115712e-01 4.503317215e-02 -1.74574770e-01
 123 2 119662 8.0228282638707640e+02 4.8369264555902288e+02 3.6581394021990434e-13 1.4137262256638058e+02 7.4058931690573706e+02 6.2062955426705921e+03 -999 9.18801750e-01 4.443093231e-02 -1.74231208e-01
 124 2 119662 6.9789602228955039e+02 4.8111551975940336e+02 3.8286306913474945e-13 1.4138103586886595e+02 6.2875793053655514e+02 6.2211163050335999e+03 -999 9.25593187e-01 4.376377758e-02 -1.73873915e-01
 125 2 119662 8.2344888673099433e+02 4.8597167971119416e+02 3.7836793128263698e-13 1.4431650504880423e+02 7.4932493513275267e+02 5.7561962620321156e+03 -999 9.29661154e-01 4.339469389e-02 -1.73671065e-01
 126 2 119662 6.9806662310741763e+02 4.7022201756308306e+02 2.5185103427382292e-13 1.3555408407307499e+02 6.3330207706757642e+02 5.8735561727701888e+03 -999 9.35010744e-01 4.296694847e-02 -1.73429968e-01
 127 2 119662 6.0014282128417949e+02 4.5402557984155851e+02 1.7881301997792768e-13 1.3341171455012335e+02 5.3415908682638030e+02 5.8938113738478551e+03 -999 9.42315098e-01 4.235872235e-02 -1.72892094e-01
 128 2 119662 6.2055154946695154e+02 4.4393923414210406e+02 1.4146351741321948e-13 1.2802961945861310e+02 5.6670043479644448e+02 5.7974555114019131e+03 -999 9.48676538e-01 4.183889747e-02 -1.72182751e-01
 129 2 119662 5.2839478121990214e+02 4.3532967633567159e+02 1.3142711110608727e-13 1.2686263323280383e+02 4.6884017110315733e+02 5.5967851297690340e+03 -999 9.52398955e-01 4.159751038e-02 -1.71758807e-01
 130 2 119662 5.9417005794422403e+02 4.4342671971624884e+02 1.3197292937137594e-13 1.2522447579591849e+02 5.3097974976845580e+02 5.6815124648572037e+03 -999 9.57476403e-01 4.130981774e-02 -1.71182865e-01
 131 2 119662 5.1856931931283168e+02 4.2308810995644097e+02 1.0684564658049648e-13 1.1699881366659665e+02 4.5774040738834117e+02 5.6006702624135542e+03 -999 9.62079957e-01 4.113332183e-02 -1.70734761e-01
 132 2 119662 4.7679496483549252e+02 4.1391178572246423e+02 1.6870317183211963e-13 1.1425843875190239e+02 4.1339401411712993e+02 5.4596497012131667e+03 -999 9.67668868e-01 4.097425096e-02 -1.70377315e-01
 133 2 119662 4.8118509182887516e+02 4.1486016137026104e+02 2.7238057254692650e-13 1.1077964689216675e+02 4.2049134840173468e+02 5.3318354638565424e+03 -999 9.74316442e-01 4.079976939e-02 -1.70063757e-01
 134 2 119662 4.6606306149673532e+02 4.0420108366555633e+02 2.9237872048174409e-13 1.0814139152693956e+02 4.0523818741304524e+02 5.3012280873405252e+03 -999 9.77164085e-01 4.066548294e-02 -1.69779948e-01
 135 2 119662 4.7196287859951997e+02 4.0174204984047759e+02 3.0709685959513387e-13 1.0660633233670666e+02 4.0923484846771822e+02 5.2700274374114697e+03 -999 9.79579486e-01 4.054303339e-02 -1.69529786e-01
 136 2 119662 4.6060703067780179e+02 3.9740664272257010e+02 2.0150342310601200e-13 1.0297903279949860e+02 3.9776759293901756e+02 5.3660863250477023e+03 -999 9.83472239e-01 4.036151628e-02 -1.69220616e-01
 137 2 119662 4.5699936073319469e+02 3.9179393924703362e+02 1.2867995601330380e-13 9.9741041325943584e+01 3.9399190320492386e+02 5.4832364549958302e+03 -999 9.87642395e-01 4.013971182e-02 -1.68900763e-01
 138 2 119662 4.6168380766511086e+02 3.8817667979337239e+02 9.7231094989298128e-14 9.7459428342801161e+01 3.9949755784378272e+02 5.9112006059163659e+03 -999 9.91071881e-01 3.991674447e-02 -1.68605205e-01
 139 2 119662 4.6558177891481705e+02 3.9113146490042016e+02 8.2296166675161205e-14 9.5387312787469810e+01 4.0359257905259011e+02 6.3798534111740773e+03 -999 9.93851113e-01 3.969223018e-02 -1.68302344e-01
 140 2 119662 4.7630604542855156e+02 3.8570464214959082e+02 8.1138745617668585e-14 9.4952357704626834e+01 4.1360395180398490e+02 6.8512135689254719e+03 -999 9.95331850e-01 3.954314151e-02 -1.68082030e-01
 141 2 119662 4.5695645006062722e+02 3.7628083098933155e+02 1.3186893930523524e-13 9.3798825132206915e+01 3.9453025134767989e+02 6.8143098030798456e+03 -999 9.97847224e-01 3.938672283e-02 -1.67935084e-01