TITLE = "005.02 ALPHA 3.10 GRIDLEVEL 5"

VARIABLES = "ITERATION"  "GRID_LEVEL"  "GRID_SIZE"  "CONTINUITY"  "MOMENTUMX"  "MOMENTUMY"  "MOMENTUMZ"  "ENERGY"  "TURB1"  "TURB2"  "CL_TOT"  "CD_TOT"  "CM_TOT"

DATASETAUXDATA ParticipantID   = "005"
DATASETAUXDATA SubmissionDate  = "10-31-2024"
DATASETAUXDATA Name            = "Jeffrey A. Housman"
DATASETAUXDATA Email           = "jeffrey.a.housman@nasa.gov"
DATASETAUXDATA Institution     = "NASA Ames Research Center"
DATASETAUXDATA SolverName      = "LAVA Curvilinear"
DATASETAUXDATA BasicAlgorithm  = "RANS"
DATASETAUXDATA TurbulenceModel = "SA-RC-comp-neg"
DATASETAUXDATA GridId          = "Multiblock"
DATASETAUXDATA Discretization  = "Finite difference"
DATASETAUXDATA Order           = "2"
DATASETAUXDATA DistanceCalc    = "Exact"
DATASETAUXDATA Notes           = " "

ZONE T = "005.02 - Alpha 3.10 - Grid Level 5"
AUXDATA Tstatic         = "271.0"
AUXDATA Deltat          = "-999"
AUXDATA GridFileName    = "ONERA-OAT15A_230mmChord_780mmSpan_upZ_2024_06_25-Structured_23mm_Level-5.x"
AUXDATA Misc            = " "
 0 5 752103 4.9338587399928423e+05 1.5883061847029412e+06 7.6804932303233595e-14 4.8451354479343176e+05 5.2347562934780924e+05 2.8714989407169111e+06 -999 1.57535282e-02 9.097841257e-01 -9.52946026e-03
 1 5 752103 7.3420086449922319e+05 1.1850426959937999e+06 6.5422416002139650e-14 3.6811103562920610e+05 7.1548697548488982e+05 1.8606429966163000e+06 -999 4.91922259e-02 8.315971192e-01 -2.35110762e-02
 2 5 752103 8.9964249890415242e+05 1.0097050974029950e+06 5.7055647658057726e-14 4.0409722499665892e+05 8.6403016676422942e+05 1.2104637013425059e+06 -999 8.94274195e-02 7.858847375e-01 -4.02693639e-02
 3 5 752103 1.0473645935513707e+06 9.0052852241608279e+05 5.0687069190894419e-14 4.8051749972004030e+05 1.0046336638131017e+06 7.9168056915574800e+05 -999 1.26263648e-01 7.560978172e-01 -5.57905506e-02
 4 5 752103 1.1747843773651507e+06 8.2401953335468506e+05 4.5733824791023612e-14 5.7372140470732260e+05 1.1382602829350808e+06 5.1039299479926476e+05 -999 1.59075193e-01 7.359308520e-01 -6.82032405e-02
 5 5 752103 1.3070798117237506e+06 8.2530874539396539e+05 4.1851539498418116e-14 6.7113758847735845e+05 1.2966731506276301e+06 3.2829293098423985e+05 -999 1.83700035e-01 7.201114172e-01 -7.74040583e-02
 6 5 752103 1.1939799337717616e+06 8.5207960817903548e+05 3.8924449414869870e-14 7.0523050827424310e+05 1.1862811537718466e+06 1.7434364142807235e+05 -999 2.00651934e-01 6.991340964e-01 -8.44574363e-02
 7 5 752103 1.2255125761209724e+06 8.5938414692595543e+05 3.6314594112095688e-14 7.3599698673564463e+05 1.2146817157567565e+06 1.2214216253771634e+05 -999 2.14679456e-01 6.762332511e-01 -9.07585962e-02
 8 5 752103 1.2884856432253050e+06 8.4060961162328965e+05 3.4391307555316644e-14 7.5621996103021561e+05 1.2974941028842854e+06 1.0048834607447285e+05 -999 2.25698853e-01 6.536369225e-01 -9.54686329e-02
 9 5 752103 1.5590832239695508e+06 9.1668709711813822e+05 3.2781862917204876e-14 8.3418234792664053e+05 1.6298048972489513e+06 8.8663583259555497e+04 -999 2.36295486e-01 6.284720117e-01 -9.96245662e-02
 10 5 752103 1.4568526760550300e+06 7.6456177942922234e+05 3.1863919290134222e-14 8.0304109314560506e+05 1.5015879736864630e+06 7.9558179193940334e+04 -999 2.41996804e-01 6.135096245e-01 -1.01798996e-01
 11 5 752103 1.3801677551526788e+06 7.8748489803502522e+05 3.0808434679006693e-14 7.9484173207849381e+05 1.4121975887338349e+06 7.1774416888741791e+04 -999 2.47887618e-01 5.968681839e-01 -1.04103250e-01
 12 5 752103 1.2807189551340258e+06 7.6741779682985775e+05 2.9787902957414137e-14 7.6652827217172564e+05 1.2971686643110979e+06 6.6003376404907103e+04 -999 2.52911945e-01 5.812748522e-01 -1.05993531e-01
 13 5 752103 1.4309527518295522e+06 8.1468306355642423e+05 2.8830597890564925e-14 8.0368456334215601e+05 1.4798222670661581e+06 6.1602921172639719e+04 -999 2.57698249e-01 5.648566152e-01 -1.07806425e-01
 14 5 752103 1.3465332599772154e+06 6.9852656831264473e+05 2.8262829961708745e-14 7.6731685392860591e+05 1.3748831065347076e+06 5.7656463225166081e+04 -999 2.60379244e-01 5.546702373e-01 -1.08888647e-01
 15 5 752103 1.5480986988139984e+06 8.4036177915090311e+05 2.7825894697995278e-14 8.0421494383939449e+05 1.6432975558012994e+06 5.4359635003028714e+04 -999 2.62973782e-01 5.443039099e-01 -1.10024271e-01
 16 5 752103 1.3002485694627303e+06 7.3298963271947217e+05 2.7282139773610187e-14 7.3482247576314630e+05 1.3651214247350339e+06 4.9936502692980968e+04 -999 2.64935856e-01 5.353759091e-01 -1.10908989e-01
 17 5 752103 1.2016439692968454e+06 6.8370090654009255e+05 2.6713807624628313e-14 7.0971730932134343e+05 1.2211030519706197e+06 4.6458463170644507e+04 -999 2.66930421e-01 5.253224697e-01 -1.11768596e-01
 18 5 752103 1.1761551298424178e+06 6.4374233407010057e+05 2.6313498454927137e-14 6.9156550762457016e+05 1.1873545555326736e+06 4.3693463362172617e+04 -999 2.68462576e-01 5.166002608e-01 -1.12356301e-01
 19 5 752103 1.3097709499862501e+06 6.8845293821502523e+05 2.6000608610613020e-14 6.9726667004471237e+05 1.3721933278753564e+06 4.1338951697208897e+04 -999 2.69728422e-01 5.086724933e-01 -1.12772243e-01
 20 5 752103 1.2933222514274968e+06 6.2923866746022622e+05 2.5782820030063245e-14 6.9944576605060510e+05 1.3406594612934752e+06 3.9222497702620058e+04 -999 2.70639679e-01 5.023954481e-01 -1.13039347e-01
 21 5 752103 1.1773181447006355e+06 6.5269394101058831e+05 2.5411658649003607e-14 6.6063609604486905e+05 1.2269683310942589e+06 3.6288653742747716e+04 -999 2.71375033e-01 4.962782521e-01 -1.13241775e-01
 22 5 752103 1.0480690878915773e+06 5.8038726375242101e+05 2.4975895902820700e-14 6.1593185050702246e+05 1.0713830968370340e+06 3.3990565418153928e+04 -999 2.72181154e-01 4.889821891e-01 -1.13459160e-01
 23 5 752103 1.0541216618830189e+06 5.9698364788262208e+05 2.4585109686955067e-14 6.0407513971694768e+05 1.0779594500840514e+06 3.2101513446225756e+04 -999 2.72891688e-01 4.819668675e-01 -1.13653159e-01
 24 5 752103 1.1918622531816331e+06 6.2761978299097007e+05 2.4306535072569228e-14 6.2200819697328075e+05 1.2498666712244649e+06 3.0561296396814316e+04 -999 2.73529286e-01 4.752254337e-01 -1.13835942e-01
 25 5 752103 1.1352633584909895e+06 5.4262158710234449e+05 2.4081157852091530e-14 5.9774630868665618e+05 1.1877717869669471e+06 2.9037746416859376e+04 -999 2.73912308e-01 4.708636596e-01 -1.13952367e-01
 26 5 752103 1.0167693983950670e+06 5.3319227650811069e+05 2.3687399616232210e-14 5.6610203355345409e+05 1.0608356375787936e+06 2.6996710011983487e+04 -999 2.74276953e-01 4.659332252e-01 -1.14062490e-01
 27 5 752103 9.0743873183070519e+05 5.1213352282260743e+05 2.3247631006699744e-14 5.2938935758483852e+05 9.3053805452950951e+05 2.5406329684570286e+04 -999 2.74679804e-01 4.603213993e-01 -1.14187174e-01
 28 5 752103 9.1406753303083428e+05 5.1096228106295998e+05 2.2875191399321085e-14 5.1580063306566788e+05 9.3486898000333807e+05 2.4098213026756766e+04 -999 2.75073507e-01 4.547438804e-01 -1.14310230e-01
 29 5 752103 1.0347757708938823e+06 5.4349138297049270e+05 2.2630635890176498e-14 5.2755592275110655e+05 1.0854125529161515e+06 2.2986652568429385e+04 -999 2.75439693e-01 4.494650463e-01 -1.14422525e-01
 30 5 752103 1.0011857075566998e+06 4.7470792714171897e+05 2.2516377860811013e-14 5.1360203206040285e+05 1.0480824588647891e+06 2.1894819744075012e+04 -999 2.75677282e-01 4.459545562e-01 -1.14493535e-01
 31 5 752103 8.8771117336153414e+05 4.7274114953866444e+05 2.2281092979558506e-14 4.8148872652575839e+05 9.3209504625167232e+05 2.0396790845388030e+04 -999 2.75909260e-01 4.419791158e-01 -1.14558089e-01
 32 5 752103 7.7499052741524181e+05 4.3727077242598252e+05 2.2037749872709566e-14 4.4536534176574304e+05 7.9790198563966760e+05 1.9237904113079960e+04 -999 2.76176748e-01 4.373985361e-01 -1.14632825e-01
 33 5 752103 7.6880644108100573e+05 4.2880196847790881e+05 2.1876373274447025e-14 4.2924883832620212e+05 7.8238221259769169e+05 1.8294955769792021e+04 -999 2.76446838e-01 4.327620846e-01 -1.14708684e-01
 34 5 752103 8.4540104740983609e+05 4.4965764177236124e+05 2.1840597487514643e-14 4.2910972977089224e+05 8.8578948912923154e+05 1.7458790547491932e+04 -999 2.76670534e-01 4.289030884e-01 -1.14772028e-01
 35 5 752103 9.6150701547000092e+05 5.4171579799860180e+05 2.1862977531483759e-14 4.4756337190146040e+05 1.0330474059983870e+06 1.6712505425750816e+04 -999 2.76878843e-01 4.252940486e-01 -1.14831603e-01
 36 5 752103 8.0030473386210238e+05 4.6630167580648768e+05 2.1679356618772098e-14 4.0612556058292516e+05 8.6343717566560034e+05 1.5578456372815550e+04 -999 2.77036371e-01 4.221763821e-01 -1.14874014e-01
 37 5 752103 6.6196483265781205e+05 3.8527791698585870e+05 2.1457995370181375e-14 3.6969415353800613e+05 6.9151033792048320e+05 1.4703349327207381e+04 -999 2.77228345e-01 4.184353344e-01 -1.14926483e-01
 38 5 752103 6.3286730797264411e+05 3.6347808924992854e+05 2.1256400041043379e-14 3.5009330270124786e+05 6.4270273426083615e+05 1.3980299706904845e+04 -999 2.77427913e-01 4.146104700e-01 -1.14981959e-01
 39 5 752103 6.9997999358924828e+05 3.7659857539729029e+05 2.1139871207322535e-14 3.4840865179174289e+05 7.2807442626521864e+05 1.3356803079251824e+04 -999 2.77608441e-01 4.111985961e-01 -1.15032890e-01
 40 5 752103 7.6256172135155462e+05 3.9285394729881472e+05 2.1092289297462666e-14 3.5447059555588971e+05 8.0543868106784311e+05 1.2786281022665249e+04 -999 2.77763804e-01 4.082916386e-01 -1.15077253e-01
 41 5 752103 6.4853907955640974e+05 3.6210854672872217e+05 2.0860094145006772e-14 3.2494535184774408e+05 6.9451435779271123e+05 1.1892420666690314e+04 -999 2.77895275e-01 4.055474354e-01 -1.15112724e-01
 42 5 752103 5.3447494557489548e+05 3.1514841942052444e+05 2.0568233268694964e-14 2.9455114755530056e+05 5.6070282932991581e+05 1.1177272547681896e+04 -999 2.78052851e-01 4.023315585e-01 -1.15155936e-01
 43 5 752103 4.9954814474257879e+05 2.8802122193152882e+05 2.0273694277468030e-14 2.7413059822627937e+05 5.0538693292801874e+05 1.0571262778005401e+04 -999 2.78230381e-01 3.987929751e-01 -1.15205339e-01
 44 5 752103 5.4336619123606535e+05 2.9424841512549075e+05 2.0077570060333682e-14 2.6927171625045000e+05 5.6087542310966540e+05 1.0050300628653007e+04 -999 2.78387694e-01 3.957280964e-01 -1.15249675e-01
 45 5 752103 5.9916093531510734e+05 3.3113112701862515e+05 1.9954392610336029e-14 2.7113563698156574e+05 6.3847240833843453e+05 9.5815609113678256e+03 -999 2.78519620e-01 3.932002703e-01 -1.15287230e-01
 46 5 752103 5.0667386925073125e+05 2.8045059523883712e+05 1.9710449948695380e-14 2.4825824878773215e+05 5.4472005068856198e+05 8.9061040565625044e+03 -999 2.78638937e-01 3.906946501e-01 -1.15319210e-01
 47 5 752103 4.1562078105377284e+05 2.4647243218410725e+05 1.9425802034107266e-14 2.2520985342510164e+05 4.3905841924531304e+05 8.3376515090103021e+03 -999 2.78779124e-01 3.878223692e-01 -1.15357307e-01
 48 5 752103 3.7863794346428552e+05 2.2504805258614308e+05 1.9146649810516270e-14 2.0768436923227797e+05 3.8464145415350917e+05 7.8469527758547192e+03 -999 2.78936365e-01 3.846815243e-01 -1.15400600e-01
 49 5 752103 4.0341988252655335e+05 2.2473912639586005e+05 1.8972272420112733e-14 2.0105225130440490e+05 4.1301199134015862e+05 7.4249568774025211e+03 -999 2.79083929e-01 3.818050338e-01 -1.15441753e-01
 50 5 752103 4.4040930696231680e+05 2.3892943932589694e+05 1.8897919928500259e-14 2.0034246812437635e+05 4.6229895093460893e+05 7.0482615808016544e+03 -999 2.79213853e-01 3.793192835e-01 -1.15478483e-01
 51 5 752103 3.7776171172151715e+05 2.1165126039112147e+05 1.8689307401081265e-14 1.8363845543304441e+05 4.0340438975079189e+05 6.5219746434276612e+03 -999 2.79324373e-01 3.770525382e-01 -1.15508129e-01
 52 5 752103 3.0838263011592167e+05 1.8664927817232272e+05 1.8424242751752183e-14 1.6523359460977736e+05 3.2776734260098753e+05 6.0750947475462654e+03 -999 2.79458773e-01 3.743514019e-01 -1.15544810e-01
 53 5 752103 2.7237555270315328e+05 1.6834008101756516e+05 1.8142648442333124e-14 1.4951478621427939e+05 2.7941031665788783e+05 5.6607905828834173e+03 -999 2.79613570e-01 3.713088418e-01 -1.15587860e-01
 54 5 752103 2.8054421128542855e+05 1.6445252082541102e+05 1.7945659893756889e-14 1.4142865950833826e+05 2.8688943497140089e+05 5.3074485248433803e+03 -999 2.79760681e-01 3.684801732e-01 -1.15629708e-01
 55 5 752103 2.9901862187322602e+05 1.7128359918448605e+05 1.7843558122324937e-14 1.3782704185932924e+05 3.1247345417520357e+05 4.9929992736550294e+03 -999 2.79892284e-01 3.659904914e-01 -1.15668187e-01
 56 5 752103 2.5729631129353002e+05 1.5307659148132373e+05 1.7652885109161323e-14 1.2662172206315145e+05 2.7377381795848598e+05 4.5784792223212098e+03 -999 2.80002836e-01 3.637476755e-01 -1.15699911e-01
 57 5 752103 2.1050858349570789e+05 1.3620437696246363e+05 1.7416217619274566e-14 1.1400687198580960e+05 2.2462195650494905e+05 4.2158040328718344e+03 -999 2.80135966e-01 3.610957947e-01 -1.15738870e-01
 58 5 752103 1.8183727326834702e+05 1.2284325617449921e+05 1.7161902794167836e-14 1.0224792709277755e+05 1.8907443312284557e+05 3.8895031744143412e+03 -999 2.80291810e-01 3.580541199e-01 -1.15785561e-01
 59 5 752103 1.7979384151885653e+05 1.1761342070694589e+05 1.6981422246288086e-14 9.4835824220234179e+04 1.8497175378585211e+05 3.6107081515374989e+03 -999 2.80444828e-01 3.551280846e-01 -1.15832933e-01
 60 5 752103 1.8418478306745077e+05 1.1680360990292873e+05 1.6888537180948185e-14 9.0272063864399344e+04 1.9155616823521521e+05 3.3730998526897397e+03 -999 2.80583985e-01 3.525062259e-01 -1.15877946e-01
 61 5 752103 1.5971638751349464e+05 1.0741621650463967e+05 1.6707020502093295e-14 8.3526608369632057e+04 1.6893203459794150e+05 3.0573803803035785e+03 -999 2.80695044e-01 3.502685587e-01 -1.15913609e-01
 62 5 752103 1.3101706798793090e+05 9.7987002950965936e+04 1.6466573424110028e-14 7.5643437780521563e+04 1.3955971339294588e+05 2.7844024984311995e+03 -999 2.80831356e-01 3.475652948e-01 -1.15958081e-01
 63 5 752103 1.1026044818103808e+05 8.9586522237993398e+04 1.6202566284085544e-14 6.7719000595508362e+04 1.1551546377472863e+05 2.5440466965034070e+03 -999 2.80994205e-01 3.443934093e-01 -1.16012397e-01
 64 5 752103 1.0370553329766469e+05 8.4467767554204882e+04 1.5982462837510746e-14 6.1959125556744388e+04 1.0731433635128688e+05 2.3423892711416861e+03 -999 2.81156264e-01 3.412908862e-01 -1.16068501e-01
 65 5 752103 1.0086641158242090e+05 8.1167250059303813e+04 1.5833988797135291e-14 5.7834144246443182e+04 1.0446283659830713e+05 2.1716762360490470e+03 -999 2.81304184e-01 3.384875779e-01 -1.16122640e-01
 66 5 752103 8.8120088104935581e+04 7.6372778726319011e+04 1.5645301635772723e-14 5.3410823615501133e+04 9.2416794018938788e+04 1.9484831308269916e+03 -999 2.81417937e-01 3.361150313e-01 -1.16162120e-01
 67 5 752103 7.2893484721168556e+04 7.1200566397220289e+04 1.5409289491230119e-14 4.8182236077426416e+04 7.6806098079672171e+04 1.7614506823514225e+03 -999 2.81557372e-01 3.332221101e-01 -1.16210816e-01
 68 5 752103 6.0318291266651970e+04 6.6013529592438179e+04 1.5110951261412030e-14 4.2541738372755543e+04 6.2711916279249759e+04 1.6041737630831017e+03 -999 2.81725431e-01 3.297501063e-01 -1.16270347e-01
 69 5 752103 5.3940886282050902e+04 6.1977183519338985e+04 1.4853921886147781e-14 3.7920145053623404e+04 5.5374351974781159e+04 1.4762561551292317e+03 -999 2.81891825e-01 3.263071376e-01 -1.16331497e-01
 70 5 752103 4.9717687454710926e+04 5.8800474621040768e+04 1.4652208936964046e-14 3.4335648400715407e+04 5.0744853073118415e+04 1.3722553390024145e+03 -999 2.82042328e-01 3.231529076e-01 -1.16390605e-01
 71 5 752103 4.3603306330404746e+04 5.5728873309760340e+04 1.4437704942513124e-14 3.1310945869719402e+04 4.4749933578146134e+04 1.2361136435309850e+03 -999 2.82145535e-01 3.203342865e-01 -1.16422084e-01
 72 5 752103 3.6431863793587341e+04 5.2248587097887932e+04 1.4176048347573775e-14 2.7818216403021775e+04 3.7339197890898584e+04 1.1364021587570589e+03 -999 2.82268042e-01 3.168181571e-01 -1.16457043e-01
 73 5 752103 3.0122498557358318e+04 4.8542117058623226e+04 1.3843784506251930e-14 2.4109452639632906e+04 3.0528166801618248e+04 1.1004780150644410e+03 -999 2.82408234e-01 3.125052760e-01 -1.16493623e-01
 74 5 752103 2.6223331336610921e+04 4.5420352777119326e+04 1.3528504638792976e-14 2.1123197308893345e+04 2.6416539974251104e+04 1.0940597902589238e+03 -999 2.82535392e-01 3.081693233e-01 -1.16523847e-01
 75 5 752103 2.3609328572326089e+04 4.2906097432822135e+04 1.3264043956490351e-14 1.8912903141794915e+04 2.3810197653957410e+04 1.1221974689595168e+03 -999 2.82640586e-01 3.040814908e-01 -1.16547729e-01
 76 5 752103 2.0804892275500089e+04 4.0490073733688951e+04 1.2997308048863540e-14 1.7104016065605407e+04 2.1258599516531100e+04 1.2002388412066082e+03 -999 2.82676133e-01 2.997478929e-01 -1.16499190e-01
 77 5 752103 1.7988043430257076e+04 3.7772126602750715e+04 1.2681102669044558e-14 1.5322251125961237e+04 1.8746284115286326e+04 1.4469481090146321e+03 -999 2.82724810e-01 2.940555088e-01 -1.16423001e-01
 78 5 752103 1.6183094283655924e+04 3.5040754153438247e+04 1.2305165140785046e-14 1.3991514551914061e+04 1.7341232734876277e+04 2.0587850388734132e+03 -999 2.82807391e-01 2.868759011e-01 -1.16320011e-01
 79 5 752103 1.5736001315437057e+04 3.2931791624743622e+04 1.1988487187473270e-14 1.3437488565954667e+04 1.7305587076440373e+04 3.0647177658348651e+03 -999 2.82941191e-01 2.795036329e-01 -1.16226605e-01
 80 5 752103 1.5879772279043655e+04 3.1365468102348572e+04 1.1715982604754288e-14 1.3281232079337473e+04 1.7802686831647818e+04 5.0872888261284825e+03 -999 2.83141892e-01 2.721896087e-01 -1.16169420e-01
 81 5 752103 1.5220825344615649e+04 2.8959270782425097e+04 1.1354971260849037e-14 1.2233084136964895e+04 1.7453456099035349e+04 1.0699788601163558e+04 -999 2.83627057e-01 2.620050994e-01 -1.16173217e-01
 82 5 752103 1.5236638051977054e+04 2.6766901695771139e+04 1.1108316010295815e-14 1.1577335870930694e+04 1.7670058099331192e+04 3.1795841774536308e+04 -999 2.84542997e-01 2.474321339e-01 -1.16388007e-01
 83 5 752103 1.5889962713270977e+04 2.6445377891223659e+04 1.1037642639818819e-14 1.1527138746444783e+04 1.8306110995843897e+04 5.8467438970739793e+04 -999 2.85817154e-01 2.301654226e-01 -1.17063760e-01
 84 5 752103 1.6575740951963406e+04 2.7448390100703495e+04 1.0970430129397721e-14 1.1729046842370199e+04 1.8936199463792156e+04 1.1700658585432993e+05 -999 2.86994809e-01 2.127571503e-01 -1.18291310e-01
 85 5 752103 1.7562461689478525e+04 3.4002563275470398e+04 1.0901807034638746e-14 1.2255349330736832e+04 2.3412206549522060e+04 1.7289147203986277e+05 -999 2.87695712e-01 1.945514015e-01 -1.20111043e-01
 86 5 752103 1.5257353662343259e+04 2.2063044673516284e+04 1.0264754824740067e-14 1.0804003044231971e+04 1.6580460391832828e+04 3.6683234426571830e+05 -999 2.87562277e-01 1.650947683e-01 -1.23973276e-01
 87 5 752103 1.3657408341343136e+04 2.3382726184790263e+04 9.2950926783735680e-15 9.8664462676922576e+03 1.5031022816914205e+04 4.2495222810336773e+05 -999 2.84880665e-01 1.413066395e-01 -1.27289091e-01
 88 5 752103 1.3215157935225716e+04 3.5746776555888784e+04 8.5701203800190278e-15 9.3133611613344947e+03 1.5459073146890427e+04 4.2040559576037084e+05 -999 2.83986012e-01 1.375114955e-01 -1.27624589e-01
 89 5 752103 1.3035525726941833e+04 3.7365507989234815e+04 8.3348612239346202e-15 9.0987198452024877e+03 1.4376665139900293e+04 1.5339012599198977e+05 -999 2.83621077e-01 1.361088320e-01 -1.27721202e-01
 90 5 752103 1.2895482617566700e+04 3.9237369255793150e+04 8.2079577484117743e-15 8.9340786680705332e+03 1.4061648471592249e+04 6.5452828993899850e+04 -999 2.83324315e-01 1.349724650e-01 -1.27793086e-01
 91 5 752103 1.1205507719013256e+04 2.1850724298352328e+04 7.9250318863229022e-15 7.1183395335349160e+03 1.1581642144568008e+04 2.7994026094180101e+05 -999 2.80441484e-01 1.236870353e-01 -1.28232125e-01
 92 5 752103 1.0032713693959584e+04 1.7392213779868460e+04 7.3557054794082200e-15 6.1038755070600237e+03 1.0231652860242546e+04 1.5949288659461038e+05 -999 2.79298123e-01 1.154187157e-01 -1.28437075e-01
 93 5 752103 9.4889234216704845e+03 1.5746956506913812e+04 6.8734523596778048e-15 5.4801858634256805e+03 9.5957589827589891e+03 4.2505677367011471e+04 -999 2.79791254e-01 1.110578905e-01 -1.28676113e-01
 94 5 752103 9.1240273145640331e+03 1.4730999571245749e+04 6.5914954651248703e-15 5.1570104008613316e+03 9.1982258809064169e+03 2.2263410502327381e+04 -999 2.80657188e-01 1.084529563e-01 -1.28926419e-01
 95 5 752103 9.5494520371020553e+03 1.3776731862615803e+04 6.5839564054023732e-15 4.9094895181344709e+03 9.7131876683263363e+03 2.5697190231488694e+04 -999 2.82181583e-01 1.054365157e-01 -1.29330904e-01
 96 5 752103 6.8141041504928708e+03 1.0602075201593283e+04 8.5930783013536024e-15 3.9822857947148341e+03 6.8289915505283143e+03 8.3956844185684866e+04 -999 2.97137614e-01 9.672854573e-02 -1.34023929e-01
 97 5 752103 6.0868443544732545e+03 9.8297087412556812e+03 2.8714118592326341e-14 3.7958263613093686e+03 6.1827692452795291e+03 8.3953115998335270e+04 -999 3.26034840e-01 8.660056682e-02 -1.42893857e-01
 98 5 752103 6.5223110746900375e+03 9.4800938412130090e+03 7.0930766989412024e-14 3.7316455341736919e+03 6.9670071868493778e+03 1.3011419337427469e+05 -999 3.65167094e-01 7.895494371e-02 -1.54842118e-01
 99 5 752103 5.9682952332632849e+03 7.7739751190522438e+03 7.4095323010226727e-14 3.0092103090087508e+03 6.8155781160034976e+03 8.8905825066518330e+04 -999 3.95124918e-01 7.556020802e-02 -1.63699869e-01
 100 5 752103 5.1027360126872345e+03 6.7150859961851320e+03 5.2410468638216611e-14 2.5520888503546721e+03 6.1155541786802505e+03 4.3340210410431784e+04 -999 4.19579240e-01 7.339887773e-02 -1.70422337e-01
 101 5 752103 3.4627821294219025e+03 5.0445871375425750e+03 2.8094356136522021e-12 2.4157947942292717e+03 3.8263494323338828e+03 8.2261968894803314e+04 -999 4.66711709e-01 6.961047736e-02 -1.81926379e-01
 102 5 752103 3.1034133552062608e+03 4.8285072994213851e+03 3.1419849631268861e-12 2.8188986629932315e+03 3.1164505343632081e+03 7.0459411716942224e+04 -999 5.14470515e-01 6.664838945e-02 -1.91462505e-01
 103 5 752103 3.0124264698153529e+03 4.2525687859291529e+03 1.8032832914735976e-12 2.5117350301450433e+03 2.9091553121651614e+03 1.0272235502997087e+05 -999 5.68000705e-01 6.421661435e-02 -1.99512255e-01
 104 5 752103 2.9769814239487055e+03 4.1630495991148146e+03 9.3836886025110283e-13 2.4362511237944568e+03 2.8930687163003254e+03 4.6741695097992400e+04 -999 6.04909308e-01 6.326057735e-02 -2.03280204e-01
 105 5 752103 2.9246429090619999e+03 4.2425855570033264e+03 1.1972116407967203e-12 2.2479238368326678e+03 2.8686497665288107e+03 1.7817694964706399e+04 -999 6.25845547e-01 6.301797799e-02 -2.04553411e-01
 106 5 752103 2.9238636576700032e+03 3.0782269571120378e+03 5.6273617602741476e-13 1.1877435010831750e+03 2.8592843305409051e+03 2.3510101409412026e+04 -999 6.49268787e-01 6.276342205e-02 -2.06179074e-01
 107 5 752103 3.0620782523700113e+03 2.8116007358620873e+03 4.8203579496143512e-13 1.0462670984672693e+03 2.9812695026954202e+03 2.4948853730000694e+04 -999 6.77379472e-01 6.288879595e-02 -2.07650191e-01
 108 5 752103 3.0324766307726359e+03 2.6833783192181590e+03 3.9316673129560970e-13 9.1998035364029397e+02 2.9482343617960705e+03 1.4172000930198874e+04 -999 6.94314202e-01 6.313259362e-02 -2.08135506e-01
 109 5 752103 3.0257979555903748e+03 2.5679724340157522e+03 3.4387565213442800e-13 8.2715812946240271e+02 2.9395756461950900e+03 1.4350701308418151e+04 -999 7.12836641e-01 6.349617801e-02 -2.08278575e-01
 110 5 752103 2.9943489250733346e+03 2.5043558308627489e+03 3.2106063153117301e-13 7.8058562345167832e+02 2.9092055617148953e+03 1.1926255548354358e+04 -999 7.23089421e-01 6.375657024e-02 -2.08057972e-01
 111 5 752103 2.8878666182873662e+03 2.3857133912767595e+03 3.5407528688113077e-13 7.1305397144045378e+02 2.8063636441288713e+03 1.3993253555545911e+04 -999 7.45511200e-01 6.444269375e-02 -2.07212939e-01
 112 5 752103 2.8025150516306207e+03 2.2766166414168865e+03 3.4382315058522992e-13 6.3585939483260233e+02 2.7216733454844880e+03 1.2815472853792717e+04 -999 7.67081297e-01 6.525957068e-02 -2.05782974e-01
 113 5 752103 2.7146060418047114e+03 2.2013147679019662e+03 3.3583860158494127e-13 5.8508270135588816e+02 2.6323065924208518e+03 1.1329907960565035e+04 -999 7.82767922e-01 6.594346945e-02 -2.04341323e-01
 114 5 752103 2.6810434556305831e+03 2.1374838941083558e+03 3.3685496803621867e-13 5.4635549269056935e+02 2.5944184708193743e+03 1.0851029950624274e+04 -999 8.01976401e-01 6.684253386e-02 -2.02197775e-01
 115 5 752103 2.6068931150156782e+03 2.0860577408224262e+03 3.3237509526845065e-13 5.1937982022594326e+02 2.5170780648932241e+03 9.8231268689024419e+03 -999 8.11357537e-01 6.730271129e-02 -2.00912480e-01
 116 5 752103 2.4993974548742085e+03 2.0136570434006353e+03 2.7662347434744812e-13 4.8953982023329650e+02 2.4026616750119729e+03 9.6233290444315971e+03 -999 8.22050101e-01 6.782329808e-02 -1.99277753e-01
 117 5 752103 2.3756933764021546e+03 1.9352168390134889e+03 3.7453482761374400e-13 4.7064237178173619e+02 2.2764174271361862e+03 9.6681670359469972e+03 -999 8.36760623e-01 6.853958694e-02 -1.96890649e-01
 118 5 752103 2.2616292135996950e+03 1.8728856420912700e+03 4.4217123614490613e-13 4.6173127358027511e+02 2.1576182867026491e+03 9.7481125122108970e+03 -999 8.52726676e-01 6.925094213e-02 -1.94144238e-01
 119 5 752103 2.1782331556967451e+03 1.8159126548839918e+03 4.3421914920907049e-13 4.4423197353671213e+02 2.0722651665302701e+03 9.4629259378047391e+03 -999 8.61468203e-01 6.955250558e-02 -1.92674090e-01
 120 5 752103 2.0913915284829031e+03 1.7708245525623388e+03 4.3604999102506410e-13 4.3201203291325760e+02 1.9849909556156524e+03 9.1779786219041762e+03 -999 8.68698792e-01 6.971728844e-02 -1.91435447e-01
 121 5 752103 1.9974676335650145e+03 1.7058741614626695e+03 4.5977615703382703e-13 4.2591391871934269e+02 1.8829781073787935e+03 9.5194715566553114e+03 -999 8.78594069e-01 6.980294353e-02 -1.89846009e-01
 122 5 752103 1.9132473583275687e+03 1.6368747152640588e+03 5.9498047903558442e-13 4.1785127962195230e+02 1.7914024851942850e+03 9.4373268807901022e+03 -999 8.88971704e-01 6.964545815e-02 -1.88217892e-01
 123 5 752103 1.8229633828683363e+03 1.5749568799659287e+03 6.2487664185083253e-13 4.1290074764282019e+02 1.6951397310085774e+03 9.2717418831826853e+03 -999 8.99516668e-01 6.920141516e-02 -1.86875285e-01
 124 5 752103 1.7652096362621071e+03 1.5305776928611149e+03 6.3118133247087113e-13 4.0835872445607390e+02 1.6286138040479996e+03 8.6822195684773851e+03 -999 9.06929590e-01 6.865989331e-02 -1.86166883e-01
 125 5 752103 1.7345859135984308e+03 1.5004875068552190e+03 6.1923457828784976e-13 4.0589360428831998e+02 1.5920036458031257e+03 8.3760651262829469e+03 -999 9.12751891e-01 6.812242579e-02 -1.85776306e-01
 126 5 752103 1.6709334876826410e+03 1.4450907879312772e+03 4.3646521043545889e-13 4.0155931155085875e+02 1.5271704734313964e+03 8.4843346715401458e+03 -999 9.18705395e-01 6.747202314e-02 -1.85507058e-01
 127 5 752103 1.6186166003336350e+03 1.3945879256225394e+03 4.8615599814759357e-13 3.9709054187559889e+02 1.4710741205306920e+03 8.7229935403643813e+03 -999 9.26033094e-01 6.655325455e-02 -1.85266443e-01
 128 5 752103 1.5869217572429241e+03 1.3585080791123562e+03 5.2130066098806367e-13 3.9446307538646175e+02 1.4335711926936663e+03 8.6485752724132071e+03 -999 9.34094813e-01 6.544593919e-02 -1.85200345e-01
 129 5 752103 1.5786982494360711e+03 1.3502746130747682e+03 5.1821136215998116e-13 3.9243022586344006e+02 1.4213708274617829e+03 8.7762592042762390e+03 -999 9.41110853e-01 6.439064848e-02 -1.85236047e-01
 130 5 752103 1.5562502609529481e+03 1.3194369888055355e+03 5.1282228410323082e-13 3.9186834289112340e+02 1.3982701088448105e+03 8.6374070332939027e+03 -999 9.45612827e-01 6.368364074e-02 -1.85298890e-01
 131 5 752103 1.5119247699154664e+03 1.2933473974358153e+03 3.8617364268488373e-13 3.9182003542376316e+02 1.3557027093362869e+03 8.7763483269041371e+03 -999 9.50705837e-01 6.290758407e-02 -1.85446282e-01
 132 5 752103 1.4929911004570779e+03 1.2712755659536981e+03 4.4025623525347387e-13 3.9185460343363786e+02 1.3343100052138204e+03 8.8886713401076340e+03 -999 9.57815993e-01 6.181484439e-02 -1.85645046e-01
 133 5 752103 1.4981941330808247e+03 1.2640976484480170e+03 4.8293299358792526e-13 3.9106322358785690e+02 1.3374813146322317e+03 8.8474360667187611e+03 -999 9.65397347e-01 6.068759742e-02 -1.85886408e-01
 134 5 752103 1.4961492902973373e+03 1.2667435814316366e+03 4.8868940101571718e-13 3.9055754970201957e+02 1.3355718654434668e+03 8.6155673542129243e+03 -999 9.70067482e-01 6.001929339e-02 -1.86027118e-01
 135 5 752103 1.4890009873205479e+03 1.2780559766381800e+03 4.8315913186935526e-13 3.9139196627743291e+02 1.3299173378439850e+03 8.5960469156064592e+03 -999 9.74657484e-01 5.938209934e-02 -1.86147399e-01
 136 5 752103 1.4613333582589883e+03 1.2744488042613430e+03 3.6972724213337339e-13 3.9117134190457415e+02 1.3024848945892170e+03 8.6337988744808754e+03 -999 9.79350406e-01 5.877631202e-02 -1.86283195e-01
 137 5 752103 1.4618157117567373e+03 1.2723404277962240e+03 3.8167425673025762e-13 3.9164680546829436e+02 1.3020999006386621e+03 8.6606646898189629e+03 -999 9.84996588e-01 5.808286357e-02 -1.86415119e-01
 138 5 752103 1.4684489943755802e+03 1.2713234347428497e+03 4.1993970357082188e-13 3.9080487196249317e+02 1.3121892275662647e+03 8.7054495406824608e+03 -999 9.91023124e-01 5.739369408e-02 -1.86511251e-01
 139 5 752103 1.4835067567973927e+03 1.2952972636814895e+03 4.3134191768829051e-13 3.9035865561241280e+02 1.3290385323838723e+03 8.7552249090028472e+03 -999 9.96713634e-01 5.679531383e-02 -1.86541548e-01
 140 5 752103 1.5063091337788735e+03 1.3211797778644543e+03 4.3078684747012790e-13 3.9090167052190293e+02 1.3499341953488777e+03 8.7557006280225178e+03 -999 1.00034533e+00 5.644442383e-02 -1.86514091e-01
 141 5 752103 1.4696898623090208e+03 1.2925474150319426e+03 3.4252282874313137e-13 3.8410171335627018e+02 1.3166470509375142e+03 8.9581328410141323e+03 -999 1.00376175e+00 5.614474144e-02 -1.86474096e-01