TITLE = "005.02 ALPHA 3.40 GRIDLEVEL 3"

VARIABLES = "ITERATION"  "GRID_LEVEL"  "GRID_SIZE"  "CONTINUITY"  "MOMENTUMX"  "MOMENTUMY"  "MOMENTUMZ"  "ENERGY"  "TURB1"  "TURB2"  "CL_TOT"  "CD_TOT"  "CM_TOT"

DATASETAUXDATA ParticipantID   = "005"
DATASETAUXDATA SubmissionDate  = "10-31-2024"
DATASETAUXDATA Name            = "Jeffrey A. Housman"
DATASETAUXDATA Email           = "jeffrey.a.housman@nasa.gov"
DATASETAUXDATA Institution     = "NASA Ames Research Center"
DATASETAUXDATA SolverName      = "LAVA Curvilinear"
DATASETAUXDATA BasicAlgorithm  = "RANS"
DATASETAUXDATA TurbulenceModel = "SA-RC-comp-neg"
DATASETAUXDATA GridId          = "Multiblock"
DATASETAUXDATA Discretization  = "Finite difference"
DATASETAUXDATA Order           = "2"
DATASETAUXDATA DistanceCalc    = "Exact"
DATASETAUXDATA Notes           = " "

ZONE T = "005.02 - Alpha 3.40 - Grid Level 3"
AUXDATA Tstatic         = "271.0"
AUXDATA Deltat          = "-999"
AUXDATA GridFileName    = "ONERA-OAT15A_230mmChord_780mmSpan_upZ_2024_06_25-Structured_23mm_Level-3.x"
AUXDATA Misc            = " "
 0 3 234820 2.7047538775730453e+05 6.4984749376720446e+05 4.4403372445976439e-14 2.4830606335671406e+05 2.7739784156222985e+05 1.0412305254276408e+06 -999 1.14028095e-02 6.041255400e-01 -7.33543231e-03
 1 3 234820 3.8063898354061978e+05 5.0813153634736553e+05 3.9160225329373294e-14 2.0042846201665621e+05 3.6933194275524444e+05 6.7353588489916257e+05 -999 5.13958715e-02 5.785921941e-01 -2.36463505e-02
 2 3 234820 4.6097496351540345e+05 4.4788946689228353e+05 3.5233772552284026e-14 2.2239528949163304e+05 4.4160402044803923e+05 4.3608278395012172e+05 -999 9.64142408e-02 5.699776611e-01 -4.16008499e-02
 3 3 234820 5.4024793706016103e+05 4.0855481671966560e+05 3.2199170760203061e-14 2.6077373605444111e+05 5.1656030052674026e+05 2.8168109673761198e+05 -999 1.35844263e-01 5.686062879e-01 -5.79997014e-02
 4 3 234820 6.1681054437666677e+05 3.7752621992547694e+05 2.9818341999502192e-14 3.0706240266764455e+05 5.9484454791472980e+05 1.7861712534593142e+05 -999 1.70168991e-01 5.716325517e-01 -7.08075058e-02
 5 3 234820 6.9157572180015815e+05 3.8065080564022565e+05 2.7965637084606133e-14 3.5783707631934294e+05 6.7818606251308939e+05 9.6389928638918325e+04 -999 1.96977133e-01 5.759232477e-01 -8.03627861e-02
 6 3 234820 6.3747111829785549e+05 4.2473057441437244e+05 2.6575471427608955e-14 3.8020268416854675e+05 6.2744088810909842e+05 6.7628560432766375e+04 -999 2.15314493e-01 5.734851412e-01 -8.75380334e-02
 7 3 234820 6.5220082132578862e+05 4.4507319882270508e+05 2.5309326968389788e-14 3.9593750649382756e+05 6.3775556013732299e+05 5.3835894902596345e+04 -999 2.30018559e-01 5.669405453e-01 -9.38260229e-02
 8 3 234820 7.0864055884812924e+05 4.4510840531467728e+05 2.4429778748605843e-14 4.0304090343604557e+05 7.1163091166541353e+05 4.5940318044378619e+04 -999 2.41325680e-01 5.565026923e-01 -9.85713878e-02
 9 3 234820 8.2409601475360978e+05 4.6362398226900678e+05 2.3809748768589657e-14 4.3448564826362842e+05 8.4544908788522054e+05 4.0901291762086978e+04 -999 2.52787759e-01 5.424832766e-01 -1.02895611e-01
 10 3 234820 8.1055781259812054e+05 4.2430328316239914e+05 2.3427197941774622e-14 4.1932058829766599e+05 8.3992453900650749e+05 3.6799104899089412e+04 -999 2.59507329e-01 5.334805421e-01 -1.05287137e-01
 11 3 234820 7.1474877338903421e+05 3.8925302223856660e+05 2.2921975951882794e-14 4.0272942927494348e+05 7.2516427923451224e+05 3.3217528454698127e+04 -999 2.67836653e-01 5.216531121e-01 -1.08370938e-01
 12 3 234820 6.7334415218012338e+05 4.0344503674940200e+05 2.2491091599195387e-14 3.8810752360867453e+05 6.7962624876532657e+05 3.0290123589453979e+04 -999 2.73940697e-01 5.124495787e-01 -1.10599352e-01
 13 3 234820 7.0766854043722490e+05 3.7893042819236463e+05 2.2117409354388139e-14 3.8975791966357490e+05 7.1733238055246056e+05 2.7932389006327339e+04 -999 2.79662591e-01 5.030463320e-01 -1.12684030e-01
 14 3 234820 6.9550796502672986e+05 3.6429976883530663e+05 2.1830221208918658e-14 3.7054479811676330e+05 7.1578987178870733e+05 2.5934552962057260e+04 -999 2.82864855e-01 4.969342832e-01 -1.13900733e-01
 15 3 234820 7.3758151325916394e+05 3.9516089826819010e+05 2.1578828502293825e-14 3.8470144975221989e+05 7.6433298046887515e+05 2.4356349712829386e+04 -999 2.86045539e-01 4.902298235e-01 -1.15192885e-01
 16 3 234820 6.6132001085692691e+05 3.8565944744384731e+05 2.1315681730608335e-14 3.5723874288270657e+05 6.8927617458713125e+05 2.2283949572716549e+04 -999 2.88176382e-01 4.849196468e-01 -1.16126492e-01
 17 3 234820 5.7213606681404775e+05 3.1766442498671031e+05 2.1008455589434364e-14 3.2558701261699910e+05 5.8316088502136106e+05 2.0593811499085823e+04 -999 2.90586277e-01 4.783925523e-01 -1.17190127e-01
 18 3 234820 5.6969192785414972e+05 3.2774513393209426e+05 2.0745316100340877e-14 3.1676967753835843e+05 5.8010529716914368e+05 1.9219243214718736e+04 -999 2.92688574e-01 4.719923911e-01 -1.18089420e-01
 19 3 234820 5.8356074509910191e+05 2.9657098809802945e+05 2.0552456257833931e-14 3.1222562814681442e+05 5.9432127994693688e+05 1.8031828566415355e+04 -999 2.94365614e-01 4.662200473e-01 -1.18755391e-01
 20 3 234820 6.0431073018908664e+05 3.0289094607669202e+05 2.0436395971170515e-14 3.0289127690129093e+05 6.3166321926624002e+05 1.6925924918100944e+04 -999 2.95520784e-01 4.617486320e-01 -1.19173033e-01
 21 3 234820 5.0921585482066218e+05 2.7183731065270532e+05 2.0231055427706081e-14 2.7908230920278153e+05 5.2966307705282839e+05 1.5596298172887478e+04 -999 2.96672574e-01 4.564240911e-01 -1.19552923e-01
 22 3 234820 4.5926411463691649e+05 2.6652106983288773e+05 2.0031676300620047e-14 2.6258866101167421e+05 4.6813951330872474e+05 1.4510100026700002e+04 -999 2.97743050e-01 4.510870401e-01 -1.19882436e-01
 23 3 234820 4.6510387302059610e+05 2.5169442335390509e+05 1.9838881659352796e-14 2.5370268453933677e+05 4.7073671056208649e+05 1.3594561012915115e+04 -999 2.98834987e-01 4.452282948e-01 -1.20202933e-01
 24 3 234820 4.6366288103922183e+05 2.4427085021269461e+05 1.9706545406562460e-14 2.4399958173760079e+05 4.7902225558878039e+05 1.2792957660182672e+04 -999 2.99549189e-01 4.410044939e-01 -1.20406869e-01
 25 3 234820 5.4161394945934822e+05 3.0308850808525010e+05 1.9576620954762168e-14 2.5782169699091822e+05 5.7566272581265750e+05 1.2102464675607904e+04 -999 3.00302331e-01 4.362063924e-01 -1.20624309e-01
 26 3 234820 4.4194724284540757e+05 2.6876229984638671e+05 1.9353875325609155e-14 2.2876485851058853e+05 4.7298355055250996e+05 1.1193104809803490e+04 -999 3.00812165e-01 4.321493173e-01 -1.20769585e-01
 27 3 234820 3.6877660979975812e+05 2.1852438479364017e+05 1.9121197477916666e-14 2.0590423151802865e+05 3.8241264142578968e+05 1.0426497647594297e+04 -999 3.01332592e-01 4.277794285e-01 -1.20922519e-01
 28 3 234820 3.5429717749079631e+05 2.0462842625752866e+05 1.8905066542240854e-14 1.9367728303417936e+05 3.5856240233563888e+05 9.7660739210863412e+03 -999 3.01851003e-01 4.231517608e-01 -1.21078906e-01
 29 3 234820 3.7004652297506452e+05 2.0280995022298695e+05 1.8762951455075273e-14 1.8814138914253138e+05 3.8525947988746426e+05 9.1980240950552452e+03 -999 3.02231853e-01 4.195323734e-01 -1.21196285e-01
 30 3 234820 4.2965413925203210e+05 2.4748563067098582e+05 1.8640978510036968e-14 1.9634381854504201e+05 4.5899829121242085e+05 8.6962681279629032e+03 -999 3.02620436e-01 4.156900654e-01 -1.21317631e-01
 31 3 234820 3.5364621507234825e+05 2.2207445678251979e+05 1.8434632448747192e-14 1.7536339872421918e+05 3.8311563972486567e+05 8.0036863084598826e+03 -999 3.02875104e-01 4.125804251e-01 -1.21392443e-01
 32 3 234820 2.8326862369387067e+05 1.7991293143414380e+05 1.8183480063415912e-14 1.5437440719227798e+05 3.0111102679914160e+05 7.4189551442258244e+03 -999 3.03169875e-01 4.089464806e-01 -1.21478594e-01
 33 3 234820 2.5354275772498743e+05 1.5801127017028784e+05 1.7926305971207408e-14 1.3959517023895722e+05 2.5817392221588208e+05 6.9084601969088317e+03 -999 3.03490573e-01 4.049312705e-01 -1.21571258e-01
 34 3 234820 2.6927538289531466e+05 1.5448822815437269e+05 1.7722018936880779e-14 1.3441276678619668e+05 2.7742668209711387e+05 6.4606155002739761e+03 -999 3.03775049e-01 4.012990870e-01 -1.21652880e-01
 35 3 234820 2.7800523082870815e+05 1.5578844101853741e+05 1.7587973684468956e-14 1.3118034474832795e+05 2.9361375420213945e+05 6.0682653167355529e+03 -999 3.03987367e-01 3.985406987e-01 -1.21714081e-01
 36 3 234820 2.3613005782135896e+05 1.3881657527707409e+05 1.7383492550502045e-14 1.1912435486219527e+05 2.5290877610986642e+05 5.5205879704319668e+03 -999 3.04171304e-01 3.956758545e-01 -1.21763067e-01
 37 3 234820 1.9141803236992063e+05 1.2560450517819113e+05 1.7131844652817994e-14 1.0595946226597507e+05 2.0362258108550115e+05 5.0523932145981453e+03 -999 3.04386224e-01 3.923656489e-01 -1.21820713e-01
 38 3 234820 1.6650403642858920e+05 1.1178922022784266e+05 1.6851202633393337e-14 9.4212602394698901e+04 1.7059308002872791e+05 4.6531057093946247e+03 -999 3.04626554e-01 3.887063636e-01 -1.21885670e-01
 39 3 234820 1.7282232615495622e+05 1.0870395601069696e+05 1.6601693714950995e-14 8.7881940513048350e+04 1.7753725861831813e+05 4.3073507791820166e+03 -999 3.04854173e-01 3.852755299e-01 -1.21947853e-01
 40 3 234820 1.8355333561119816e+05 1.0935337311158955e+05 1.6405225755610012e-14 8.5161755590712768e+04 1.9207580851367579e+05 4.0046593544756729e+03 -999 3.05051051e-01 3.823147505e-01 -1.22002701e-01
 41 3 234820 1.5529800457620557e+05 1.0027849490793289e+05 1.6184209370553993e-14 7.7067236450805518e+04 1.6663990918053853e+05 3.6075136083544098e+03 -999 3.05203486e-01 3.796619592e-01 -1.22042081e-01
 42 3 234820 1.2175295095248580e+05 9.0032863103574055e+04 1.5908742726665178e-14 6.7599114489115935e+04 1.3126385517410756e+05 3.2677537216141245e+03 -999 3.05391769e-01 3.764565377e-01 -1.22091759e-01
 43 3 234820 1.0067642658848758e+05 8.0848955693214346e+04 1.5587987573228619e-14 5.8918942245787082e+04 1.0465331585387893e+05 2.9741396724114816e+03 -999 3.05608135e-01 3.728574995e-01 -1.22150508e-01
 44 3 234820 9.9491041177408188e+04 7.7314289209896044e+04 1.5310113506846024e-14 5.3811687799401414e+04 1.0279922390761142e+05 2.7222376610009665e+03 -999 3.05813038e-01 3.695133705e-01 -1.22208475e-01
 45 3 234820 1.0290049078054898e+05 7.7049016008762381e+04 1.5077681439522819e-14 5.0942952316926756e+04 1.0848168695978264e+05 2.5057132959356595e+03 -999 3.05993165e-01 3.665990022e-01 -1.22262202e-01
 46 3 234820 8.7896387658134816e+04 7.0703846124779724e+04 1.4850634060538395e-14 4.6588810886027233e+04 9.4752581592679868e+04 2.2149060728274912e+03 -999 3.06131791e-01 3.640168778e-01 -1.22302733e-01
 47 3 234820 7.0285201732029644e+04 6.4470668512737269e+04 1.4561059980548815e-14 4.1595891603863020e+04 7.6750595276986511e+04 1.9720349659864023e+03 -999 3.06299758e-01 3.609397536e-01 -1.22353329e-01
 48 3 234820 5.6490211850742147e+04 5.8770993348325348e+04 1.4213407559290854e-14 3.6551907970032567e+04 6.0611905946021710e+04 1.7599957838383091e+03 -999 3.06500270e-01 3.573199678e-01 -1.22416285e-01
 49 3 234820 5.1276981957880249e+04 5.5312399171063502e+04 1.3887283688082432e-14 3.2927595710975271e+04 5.3776480899108072e+04 1.5866001511213919e+03 -999 3.06699614e-01 3.537515367e-01 -1.22482976e-01
 50 3 234820 4.9166769650453949e+04 5.3323463332606661e+04 1.3600947858323894e-14 3.0496389156201345e+04 5.1532083390365930e+04 1.4443528155076244e+03 -999 3.06877169e-01 3.505636582e-01 -1.22547509e-01
 51 3 234820 4.2883761237118320e+04 5.0540729344442349e+04 1.3340960305294822e-14 2.8235435261297687e+04 4.5501937312429036e+04 1.2589380096401419e+03 -999 3.07012717e-01 3.477662259e-01 -1.22587972e-01
 52 3 234820 3.5523702664949276e+04 4.7507484408674987e+04 1.3022190624921794e-14 2.5608811362894103e+04 3.7829642427766979e+04 1.1075385420240766e+03 -999 3.07180452e-01 3.443308498e-01 -1.22636713e-01
 53 3 234820 2.9203571811785765e+04 4.4366166889518383e+04 1.2631883497335019e-14 2.2811862164934737e+04 3.0599460440718194e+04 9.8321533780653078e+02 -999 3.07383608e-01 3.401677837e-01 -1.22694391e-01
 54 3 234820 2.5727847775463633e+04 4.1803924309774236e+04 1.2231266841020255e-14 2.0525183012186328e+04 2.6452884999029633e+04 8.8562634376981657e+02 -999 3.07585159e-01 3.359537937e-01 -1.22751665e-01
 55 3 234820 2.3541157807712996e+04 3.9769904413712997e+04 1.1900675421847389e-14 1.8907515450623992e+04 2.3922084877605092e+04 8.0897465441945212e+02 -999 3.07747433e-01 3.320460400e-01 -1.22809656e-01
 56 3 234820 2.1090376979371376e+04 3.7858872876428184e+04 1.1594215715945335e-14 1.7422830013090093e+04 2.1403252098591925e+04 7.2209593763146358e+02 -999 3.07840318e-01 3.282850784e-01 -1.22807616e-01
 57 3 234820 1.8414921357855172e+04 3.5658361600808959e+04 1.1208653024341442e-14 1.5725801126092849e+04 1.8619076079332965e+04 6.5769558810135914e+02 -999 3.07944872e-01 3.235064171e-01 -1.22791707e-01
 58 3 234820 1.6138449951175802e+04 3.3280144722286139e+04 1.0747025902385686e-14 1.3951319621248575e+04 1.6314065101792241e+04 6.2087170908539917e+02 -999 3.08058538e-01 3.175833453e-01 -1.22754276e-01
 59 3 234820 1.4766673060168825e+04 3.1222207759855326e+04 1.0302244130171100e-14 1.2523018975640063e+04 1.5129868462926301e+04 6.0696892906263622e+02 -999 3.08163276e-01 3.115205402e-01 -1.22699525e-01
 60 3 234820 1.3962713637412999e+04 2.9526196401055018e+04 9.9137632203273439e-15 1.1470069715083764e+04 1.4624506047904988e+04 5.9616421718199945e+02 -999 3.08263912e-01 3.056555207e-01 -1.22637200e-01
 61 3 234820 1.2896736390734844e+04 2.7675706411705349e+04 9.5096642607883553e-15 1.0514708950165510e+04 1.3920488115235323e+04 5.9973210743226730e+02 -999 3.08330514e-01 2.985082534e-01 -1.22483784e-01
 62 3 234820 1.2176283459414755e+04 2.5597592416031337e+04 8.9910072952482804e-15 9.7400732128657892e+03 1.3598986887312649e+04 6.3771417229679662e+02 -999 3.08509692e-01 2.888259371e-01 -1.22291284e-01
 63 3 234820 1.2177433062093884e+04 2.3614357562925114e+04 8.5461901837337498e-15 9.4821346847612258e+03 1.3922302213998408e+04 7.4416186336505098e+02 -999 3.08906137e-01 2.769024177e-01 -1.22120317e-01
 64 3 234820 1.2662611520934213e+04 2.2099040375581928e+04 8.1996097891945619e-15 9.6840413765504200e+03 1.4571472633645006e+04 9.4074728730370134e+02 -999 3.09541568e-01 2.646275444e-01 -1.22084222e-01
 65 3 234820 1.3160092489280545e+04 2.0958572645832213e+04 8.0048120795516529e-15 9.9724938356890343e+03 1.5117507971159783e+04 1.2901997092016220e+03 -999 3.10383571e-01 2.522364231e-01 -1.22249665e-01
 66 3 234820 1.2776948031796150e+04 1.9025077442018126e+04 7.6448106085058213e-15 9.1255076793062108e+03 1.4647764095819808e+04 2.7311198239708915e+03 -999 3.11772241e-01 2.330103334e-01 -1.23010631e-01
 67 3 234820 1.2469535132773482e+04 1.8055188369959578e+04 7.3417068075053383e-15 8.5986997600466893e+03 1.3969468549612973e+04 7.7192604690321905e+03 -999 3.13578359e-01 2.062760389e-01 -1.24863140e-01
 68 3 234820 1.1895576510837373e+04 1.7969240190474473e+04 7.0065479893302364e-15 8.7415310454945957e+03 1.2835170235862530e+04 1.6078331279201986e+04 -999 3.14162616e-01 1.792867923e-01 -1.27843023e-01
 69 3 234820 1.1735527618526898e+04 1.8304787945810571e+04 6.4169510776796273e-15 8.8984377932095776e+03 1.2037935053088020e+04 2.7921773439021774e+04 -999 3.12105029e-01 1.608001419e-01 -1.30315451e-01
 70 3 234820 1.1690782738987695e+04 1.8480507386523808e+04 5.9568189335439851e-15 8.7903172375656450e+03 1.1813355179144592e+04 4.6645706997167472e+04 -999 3.10184437e-01 1.542208410e-01 -1.31008729e-01
 71 3 234820 9.0939516551229262e+03 1.4528531179858948e+04 3.6818026443220177e-14 7.5309290842635319e+03 9.3338966789744682e+03 1.1036427198842529e+05 -999 3.02931194e-01 1.380560842e-01 -1.31702120e-01
 72 3 234820 7.7733599475642759e+03 1.6749894842731854e+04 5.4742065446330599e-14 6.1538003124618035e+03 7.8075769171724214e+03 1.2475988243840223e+05 -999 2.91843509e-01 1.225162689e-01 -1.30314899e-01
 73 3 234820 7.3705994442304554e+03 2.6587212009179257e+04 4.9696177729340239e-14 5.3702997972180001e+03 9.3857716896058337e+03 4.8482478885095203e+04 -999 2.86603242e-01 1.164292563e-01 -1.28599747e-01
 74 3 234820 7.0976469268855089e+03 2.3516415846087984e+04 4.7695063691029336e-14 5.2214265564309635e+03 1.1606424907114153e+04 2.3033893972856553e+04 -999 2.85629523e-01 1.151735518e-01 -1.28168282e-01
 75 3 234820 6.9425178117123323e+03 2.3489938983959270e+04 4.5948044141666211e-14 5.1300698900259422e+03 1.4161490153143484e+04 1.4384481158216930e+04 -999 2.84931233e-01 1.141669255e-01 -1.27825254e-01
 76 3 234820 6.1872047022513107e+03 1.7327822182155935e+04 3.0488665324584296e-14 4.6750165730400613e+03 9.3388718279307159e+03 1.0930513057186508e+04 -999 2.81751956e-01 1.095626042e-01 -1.26238450e-01
 77 3 234820 5.6128049781558930e+03 1.2895791192744589e+04 1.8839872645561620e-14 4.4978560458031325e+03 6.0790345805380857e+03 7.9291839577414576e+03 -999 2.79541679e-01 1.047596291e-01 -1.24506611e-01
 78 3 234820 5.3637979886642715e+03 1.0837376340031369e+04 1.2282519339678588e-14 4.4722550729644945e+03 5.2972789760872747e+03 5.4920234550432115e+03 -999 2.79773742e-01 1.008952665e-01 -1.23325188e-01
 79 3 234820 5.2046069727612939e+03 1.0013030765904376e+04 9.9561566742965769e-15 4.4639286962037850e+03 5.0967625755128738e+03 4.2186695409850745e+03 -999 2.81201249e-01 9.907677453e-02 -1.23040508e-01
 80 3 234820 5.1660937587729950e+03 9.3220709343564195e+03 8.0780068420408379e-15 4.4673880549268097e+03 5.0148666841104678e+03 3.9630462484226236e+03 -999 2.83426967e-01 9.722312806e-02 -1.22950475e-01
 81 3 234820 4.7598595175531536e+03 7.4087347979298338e+03 2.0916947403872917e-13 3.8030964249477956e+03 4.6276490849733327e+03 8.6168201617286595e+03 -999 3.10448611e-01 8.875874512e-02 -1.28124884e-01
 82 3 234820 4.8170652024274859e+03 7.9039773399674632e+03 2.9270786841883190e-13 3.6675724417130309e+03 4.6891750195461855e+03 1.6439125286446349e+04 -999 3.46054215e-01 8.307330005e-02 -1.38787182e-01
 83 3 234820 5.3300906598844058e+03 8.8043303533066519e+03 2.5241953451524708e-13 3.4625091993035790e+03 5.6204578560119653e+03 2.9830849808824492e+04 -999 3.82258484e-01 7.888531999e-02 -1.51642034e-01
 84 3 234820 5.5751467745447089e+03 7.8264980867873619e+03 1.8579366268098017e-13 3.1732851841600432e+03 6.8917707744255667e+03 3.5063421689446208e+04 -999 4.07592164e-01 7.652739314e-02 -1.60971118e-01
 85 3 234820 4.9171762217484693e+03 6.1895133503136994e+03 1.4016996211876102e-13 2.9222337882029619e+03 5.9911082729512436e+03 3.3325828699477584e+04 -999 4.25977304e-01 7.479574234e-02 -1.67277641e-01
 86 3 234820 2.9642557156688199e+03 3.4519959519753265e+03 5.7916848734141233e-13 2.0703645152689378e+03 2.9156201159019329e+03 3.1333309527713929e+04 -999 4.70316171e-01 7.180934495e-02 -1.80950385e-01
 87 3 234820 2.4360715681938377e+03 3.0446384678516965e+03 3.9112498172629574e-13 1.4155625012699827e+03 2.3265945446640690e+03 4.9333419971056916e+04 -999 5.16656252e-01 6.925426810e-02 -1.92378182e-01
 88 3 234820 2.3545733033230858e+03 3.2095909430934234e+03 3.7806159403953585e-13 1.1610459721534905e+03 2.2374400917783450e+03 3.9068164965585165e+04 -999 5.65997889e-01 6.746321706e-02 -2.01373193e-01
 89 3 234820 2.3436171049992909e+03 3.1439117169137903e+03 4.3061996592102405e-13 9.7061897491535842e+02 2.2624703987533617e+03 1.9167959942445781e+04 -999 5.97437375e-01 6.700150202e-02 -2.05114133e-01
 90 3 234820 2.3047630932465840e+03 3.0698816597484774e+03 4.5319992446251384e-13 8.7705770826562070e+02 2.2399486686319610e+03 1.1229672929395416e+04 -999 6.16170078e-01 6.697083945e-02 -2.06682863e-01
 91 3 234820 1.6199291990373124e+03 2.0465883885182986e+03 8.9572144362312539e-13 5.2945025906239732e+02 1.5569265290402984e+03 8.0775654203044196e+03 -999 6.99954635e-01 6.883835434e-02 -2.08508141e-01
 92 3 234820 1.3807231543752159e+03 1.5825767622622120e+03 1.1227121099780254e-12 3.9282290610063586e+02 1.3101158889976896e+03 6.6364772851638609e+03 -999 7.74572595e-01 7.124657518e-02 -2.05902083e-01
 93 3 234820 1.2787437059241236e+03 1.4732700339953085e+03 1.0695607265112363e-12 3.7671711572713150e+02 1.2208546100309118e+03 5.9974512737769910e+03 -999 8.32564508e-01 7.300995282e-02 -2.01027981e-01
 94 3 234820 1.1607041631533066e+03 1.8324622428050243e+03 9.9323016689966634e-13 3.1319866671640489e+02 1.1687300940666237e+03 5.3778015108594700e+03 -999 8.58433542e-01 7.338414635e-02 -1.98141068e-01
 95 3 234820 1.0889387060500862e+03 2.4456005318736447e+03 9.5706838245700975e-13 3.1122905814891959e+02 1.1985206607047896e+03 5.0851556646828085e+03 -999 8.72616645e-01 7.333868294e-02 -1.96581284e-01
 96 3 234820 9.7386230930845988e+02 2.3195569621544482e+03 1.2245403408885801e-12 3.0421501127208927e+02 1.0586423544774279e+03 6.7246409571686436e+03 -999 8.99683831e-01 7.233806837e-02 -1.94673205e-01
 97 3 234820 9.0217341805242631e+02 2.0220788333910295e+03 1.7163074198959078e-12 3.0268696746603149e+02 9.2246752744574337e+02 8.4436185650240914e+03 -999 9.25008674e-01 7.118399997e-02 -1.92867538e-01
 98 3 234820 8.6227107986061878e+02 1.6665595058548681e+03 2.0230675715284175e-12 3.0155165185156972e+02 8.3262015652645141e+02 9.2240337381326663e+03 -999 9.45602908e-01 7.008470548e-02 -1.91265111e-01
 99 3 234820 8.5016975506551432e+02 1.3990158530749359e+03 2.2159256807884154e-12 3.0149759803547107e+02 7.8705182451776284e+02 1.0080058935568877e+04 -999 9.62795670e-01 6.906657981e-02 -1.89811306e-01
 100 3 234820 8.6607406734219853e+02 1.2316162861572120e+03 2.2933656180584140e-12 2.9323712792280065e+02 7.8351550011953736e+02 9.1726488121827842e+03 -999 9.75161463e-01 6.827090988e-02 -1.88650351e-01
 101 3 234820 8.6607406734219853e+02 1.2944822656002591e+03 2.3290430549390782e-12 3.0327466646109514e+02 7.8628169127344302e+02 7.4004155282699576e+03 -999 9.75161463e-01 6.827090988e-02 -1.88650351e-01
 102 3 234820 8.7920427893950182e+02 1.3440947817147696e+03 2.3017863495861620e-12 3.2747635047711412e+02 8.0093033984378599e+02 8.3321198408688506e+03 -999 9.81683344e-01 6.805330439e-02 -1.88556317e-01
 103 3 234820 8.3430918530873498e+02 1.1969546033269000e+03 1.7459519403192332e-12 2.9283585479533122e+02 7.4511121394116822e+02 9.7692676121451932e+03 -999 9.84259065e-01 6.799742203e-02 -1.88394190e-01
 104 3 234820 8.4842217638214197e+02 1.0901274161901567e+03 1.2281924560266611e-12 2.7654912917274322e+02 7.5268805221306172e+02 1.0255302628859095e+04 -999 9.88135832e-01 6.792091730e-02 -1.88225986e-01
 105 3 234820 9.0348261766122278e+02 1.0138301301008394e+03 8.8930906762858426e-13 2.7862983825393997e+02 8.0339011978877261e+02 1.0668582963222794e+04 -999 9.93258590e-01 6.778728890e-02 -1.88031437e-01
 106 3 234820 9.0381749944509579e+02 9.9222003358089876e+02 7.1887262104396343e-13 2.7199864810832366e+02 8.0313961497368041e+02 1.0380202463434383e+04 -999 9.95125100e-01 6.771066228e-02 -1.87972555e-01
 107 3 234820 9.0869575703819874e+02 9.6485377272494623e+02 5.7151926657975520e-13 2.6777502599675569e+02 8.0775326844598067e+02 1.0705120920240837e+04 -999 9.97705287e-01 6.758345287e-02 -1.87866300e-01
 108 3 234820 9.2007096788939873e+02 9.3064956967348155e+02 4.7121048333732620e-13 2.6485251789871415e+02 8.1842195279434986e+02 1.0916736644225857e+04 -999 1.00156884e+00 6.736943567e-02 -1.87697021e-01
 109 3 234820 9.3245663605384414e+02 9.0288088924200758e+02 4.2971688058441332e-13 2.5908839777495615e+02 8.2809647218793020e+02 1.0912047992737527e+04 -999 1.00477724e+00 6.712977899e-02 -1.87476692e-01
 110 3 234820 9.5515284611265508e+02 8.8669175661267241e+02 4.0719548116384749e-13 2.5560672155054044e+02 8.4750361074068758e+02 1.0903603164730099e+04 -999 1.00758577e+00 6.688415490e-02 -1.87237167e-01
 111 3 234820 9.6866815958098357e+02 8.6318823369050358e+02 6.8728845377529352e-13 2.4404669885341949e+02 8.5698943422124000e+02 1.1133016898268417e+04 -999 1.01179103e+00 6.647394268e-02 -1.86823684e-01
 112 3 234820 1.0071722783023747e+03 8.3755596983336034e+02 1.1138210562954039e-12 2.3396496705924432e+02 8.9208647082979235e+02 1.1439239350338035e+04 -999 1.01785732e+00 6.586680299e-02 -1.86202902e-01
 113 3 234820 1.0244511835987203e+03 8.2096627041129557e+02 2.0134064006453967e-12 2.2418202169455338e+02 9.0569706676471674e+02 1.1525819349394709e+04 -999 1.02361942e+00 6.527201593e-02 -1.85612740e-01
 114 3 234820 1.1016355255623407e+03 8.1473031334019186e+02 2.2524332089145684e-12 2.2148618829149197e+02 9.7559279734328823e+02 1.1916506830932081e+04 -999 1.03078756e+00 6.467497924e-02 -1.85235797e-01
 115 3 234820 1.1166998134461153e+03 8.1470681864016387e+02 2.4986312699132166e-12 2.1375036800028164e+02 9.9714381185364095e+02 1.1935553147300283e+04 -999 1.03564351e+00 6.434062626e-02 -1.85139313e-01
 116 3 234820 1.0885570051905590e+03 8.0207047827399992e+02 1.5735123439463237e-12 2.1180250378699449e+02 9.6024435908107239e+02 1.2259471429043722e+04 -999 1.03975084e+00 6.401786022e-02 -1.84962200e-01
 117 3 234820 1.1259070214985993e+03 7.9817625774152646e+02 1.4594626397954450e-12 2.1227407790721574e+02 9.9088566326768375e+02 1.2607837011938278e+04 -999 1.04542624e+00 6.359065964e-02 -1.84735640e-01
 118 3 234820 1.1129328318435562e+03 7.9338696199936476e+02 1.0291547733788615e-12 2.0873988144149743e+02 9.8780544866648040e+02 1.2757337144583547e+04 -999 1.05279795e+00 6.315995272e-02 -1.84662936e-01
 119 3 234820 1.0143892234014312e+03 7.6711873353169415e+02 1.0116425046923880e-12 2.1112890424832651e+02 8.8914625264489609e+02 1.2555343200917569e+04 -999 1.05735706e+00 6.289638666e-02 -1.84658993e-01
 120 3 234820 1.0234122988437244e+03 7.5500791085776984e+02 8.6495472444556883e-13 2.0844818280793933e+02 9.0089263339651291e+02 1.2448654062070966e+04 -999 1.06089510e+00 6.270489567e-02 -1.84696078e-01
 121 3 234820 9.2525331487094729e+02 7.3267347818929102e+02 8.2126806164534611e-13 2.0422319534191709e+02 8.1280623559399760e+02 1.2469843643962118e+04 -999 1.06645316e+00 6.241820070e-02 -1.84694835e-01
 122 3 234820 8.9471018645473009e+02 7.1301343742670167e+02 8.4884279990567753e-13 2.0564573714995885e+02 7.8330400187463135e+02 1.2315201609736225e+04 -999 1.07182190e+00 6.205101924e-02 -1.84372446e-01
 123 3 234820 9.2744074975090564e+02 7.0345397642540172e+02 9.0920648130397617e-13 2.0214393958284418e+02 8.2188062905422362e+02 1.2154348638566085e+04 -999 1.07628225e+00 6.172375833e-02 -1.83918362e-01
 124 3 234820 8.9790550526377297e+02 7.0291925512013086e+02 9.2961390463476925e-13 2.0020835869580867e+02 7.9339544432004914e+02 1.1989064898074526e+04 -999 1.08001593e+00 6.147940175e-02 -1.83513644e-01
 125 3 234820 9.2461054418085666e+02 7.1177066612073429e+02 9.3462531010007697e-13 2.0138985574433565e+02 8.1329172962461030e+02 1.1767925480854561e+04 -999 1.08256242e+00 6.133402927e-02 -1.83236998e-01
 126 3 234820 8.8003056698859052e+02 6.9191160439372777e+02 8.3962728640777947e-13 1.9500623167847888e+02 7.7080306365437582e+02 1.1703730524411905e+04 -999 1.08549719e+00 6.123980683e-02 -1.83073754e-01
 127 3 234820 8.5285074098790869e+02 6.8373066542423578e+02 9.5844828849355604e-13 1.9266061214795636e+02 7.4519612914836910e+02 1.1518917159555836e+04 -999 1.08888204e+00 6.115403875e-02 -1.82922726e-01
 128 3 234820 8.4853604797161540e+02 6.8315147422921393e+02 1.0065476455540365e-12 1.9116056958464227e+02 7.4095226898992519e+02 1.1444563435041298e+04 -999 1.09284557e+00 6.107427571e-02 -1.82775857e-01
 129 3 234820 8.5641078302362553e+02 6.7893102674630632e+02 9.3351777540517771e-13 1.8929236827104901e+02 7.5117439523844826e+02 1.1437767343043412e+04 -999 1.09633215e+00 6.100802406e-02 -1.82639495e-01
 130 3 234820 8.4798642485449773e+02 6.7655193236172317e+02 8.5448076269524718e-13 1.8842480897302039e+02 7.4290941679982382e+02 1.1303515085319836e+04 -999 1.09815921e+00 6.096615060e-02 -1.82546049e-01
 131 3 234820 8.2315889060774873e+02 6.6946935358620908e+02 9.0463897409917667e-13 1.8874650409493245e+02 7.1670293964861094e+02 1.1373453548308267e+04 -999 1.10053619e+00 6.089803116e-02 -1.82385413e-01
 132 3 234820 8.2999141262434716e+02 6.6596605418367869e+02 1.2500481484451073e-12 1.8852438524125893e+02 7.2328748340434743e+02 1.1270725592065306e+04 -999 1.10328388e+00 6.082063011e-02 -1.82202546e-01
 133 3 234820 8.4112278464970359e+02 6.6450964717864747e+02 1.4062688066681125e-12 1.8695458085260947e+02 7.3486152091251427e+02 1.1227524961035899e+04 -999 1.10582665e+00 6.074944680e-02 -1.82045038e-01
 134 3 234820 8.6024183690003326e+02 6.7301346993841298e+02 1.3812369815450936e-12 1.8560858746428281e+02 7.5437138568116973e+02 1.1582376124236273e+04 -999 1.10803233e+00 6.067384118e-02 -1.81887367e-01
 135 3 234820 8.7743343262781127e+02 6.8434416426346195e+02 1.3113125480605275e-12 1.8478201504601088e+02 7.7256460700405796e+02 1.1645293772564957e+04 -999 1.10951506e+00 6.060360169e-02 -1.81743604e-01
 136 3 234820 8.5483439965088269e+02 6.6905064895215855e+02 1.1282333244666715e-12 1.8417185024641384e+02 7.4876268984327976e+02 1.2285376620583398e+04 -999 1.11062511e+00 6.053289488e-02 -1.81596722e-01
 137 3 234820 8.5523582221317758e+02 6.6369453957023973e+02 1.1321740061963271e-12 1.8408652868202347e+02 7.4771788416232721e+02 1.2896128094238044e+04 -999 1.11207413e+00 6.044180392e-02 -1.81412382e-01
 138 3 234820 8.7900433477568038e+02 6.6813142774030757e+02 1.2321961824580276e-12 1.8363426884321220e+02 7.7127116067710858e+02 1.4024801464809019e+04 -999 1.11389062e+00 6.031741697e-02 -1.81164470e-01
 139 3 234820 8.9954020661740128e+02 6.6649011058992505e+02 1.2318027895290489e-12 1.8120495376575315e+02 7.9162640180982203e+02 1.4393229087240343e+04 -999 1.11525781e+00 6.018896258e-02 -1.80906643e-01
 140 3 234820 9.0796884835934964e+02 6.6894447498451643e+02 1.2112659847628382e-12 1.8049947584907218e+02 8.0106939837907896e+02 1.6373450359990353e+04 -999 1.11609882e+00 6.008411333e-02 -1.80693688e-01
 141 3 234820 8.9206216082207925e+02 6.6963590029781017e+02 1.0178328964238486e-12 1.7955248181440083e+02 7.8216417749149127e+02 1.7045849013267096e+04 -999 1.11767825e+00 6.000924657e-02 -1.80584418e-01