TITLE = "005.02 ALPHA 1.36 GRIDLEVEL 4"

VARIABLES = "ITERATION"  "GRID_LEVEL"  "GRID_SIZE"  "CONTINUITY"  "MOMENTUMX"  "MOMENTUMY"  "MOMENTUMZ"  "ENERGY"  "TURB1"  "TURB2"  "CL_TOT"  "CD_TOT"  "CM_TOT"

DATASETAUXDATA ParticipantID   = "005"
DATASETAUXDATA SubmissionDate  = "10-31-2024"
DATASETAUXDATA Name            = "Jeffrey A. Housman"
DATASETAUXDATA Email           = "jeffrey.a.housman@nasa.gov"
DATASETAUXDATA Institution     = "NASA Ames Research Center"
DATASETAUXDATA SolverName      = "LAVA Curvilinear"
DATASETAUXDATA BasicAlgorithm  = "RANS"
DATASETAUXDATA TurbulenceModel = "SA-RC-comp-neg"
DATASETAUXDATA GridId          = "Multiblock"
DATASETAUXDATA Discretization  = "Finite difference"
DATASETAUXDATA Order           = "2"
DATASETAUXDATA DistanceCalc    = "Exact"
DATASETAUXDATA Notes           = " "

ZONE T = "005.02 - Alpha 1.36 - Grid Level 4"
AUXDATA Tstatic         = "271.0"
AUXDATA Deltat          = "-999"
AUXDATA GridFileName    = "ONERA-OAT15A_230mmChord_780mmSpan_upZ_2024_06_25-Structured_23mm_Level-4.x"
AUXDATA Misc            = " "
 0 4 430284 3.5463619356783800e+05 1.0242267847169990e+06 6.4512503460184374e-14 3.1315708024641685e+05 3.6123993371188315e+05 1.8095427801260340e+06 -999 6.06152563e-03 7.524580564e-01 -7.43095711e-05
 1 4 430284 5.2311224552863545e+05 7.7993188005173311e+05 5.5783465964443121e-14 2.5110330560733424e+05 5.0385602252799831e+05 1.1718855812802587e+06 -999 2.17575472e-02 7.014284362e-01 -1.03412733e-02
 2 4 430284 6.5014236313093896e+05 6.7360689151011885e+05 4.9226201070345186e-14 2.7993043387066282e+05 6.2023037533003709e+05 7.6176829143170174e+05 -999 3.87883663e-02 6.731507597e-01 -2.20071275e-02
 3 4 430284 7.6535232569245028e+05 6.0990991838430823e+05 4.4132423656654403e-14 3.4021997849702428e+05 7.3106942409315880e+05 4.9543994641596021e+05 -999 5.42782928e-02 6.567978270e-01 -3.20670715e-02
 4 4 430284 8.7001211204125034e+05 5.6213420286734565e+05 4.0114381570203789e-14 4.1140868535898346e+05 8.3998946993895061e+05 3.1649177769094444e+05 -999 6.96993817e-02 6.473531410e-01 -4.10677481e-02
 5 4 430284 9.7519435552558920e+05 5.6768876096607244e+05 3.6920826344144778e-14 4.8690462206571427e+05 9.6135429043858836e+05 2.0155957504556814e+05 -999 8.07252323e-02 6.406144522e-01 -4.77238120e-02
 6 4 430284 8.9265251311229018e+05 6.1244014371931960e+05 3.4467210150615933e-14 5.1696788370329904e+05 8.8265763144302112e+05 1.0088650525644454e+05 -999 8.80647893e-02 6.284901272e-01 -5.29240887e-02
 7 4 430284 9.1647321526537277e+05 6.3032441392942797e+05 3.2238125095234570e-14 5.4044883947231283e+05 9.0222430532953574e+05 7.9729488959565293e+04 -999 9.44697699e-02 6.133835236e-01 -5.76442560e-02
 8 4 430284 9.7889431591316068e+05 6.2542076639271423e+05 3.0594660771632977e-14 5.5303680310730368e+05 9.8543030498540483e+05 6.8249027109203758e+04 -999 9.98801498e-02 5.965594524e-01 -6.10441553e-02
 9 4 430284 1.1839804503958256e+06 6.8333548037740705e+05 2.9168795790978908e-14 6.1238591637610807e+05 1.2317887381676238e+06 6.1176461437412654e+04 -999 1.05729031e-01 5.758797769e-01 -6.41220239e-02
 10 4 430284 1.1095959582503722e+06 5.7757797386613966e+05 2.8371546872232392e-14 5.8194207483709417e+05 1.1492697008333534e+06 5.5122766576759685e+04 -999 1.08855820e-01 5.637464332e-01 -6.56909680e-02
 11 4 430284 1.0182827627654887e+06 5.6342347100537957e+05 2.7414931249385232e-14 5.6872974387917854e+05 1.0380627016922557e+06 4.9695809733249538e+04 -999 1.12342211e-01 5.489444246e-01 -6.75535462e-02
 12 4 430284 9.4722865620451921e+05 5.7006421806359792e+05 2.6649149419087165e-14 5.4642145581046015e+05 9.5917809847026854e+05 4.5377292812855318e+04 -999 1.14961343e-01 5.362515552e-01 -6.90146749e-02
 13 4 430284 1.0505912059929040e+06 5.8060006422305701e+05 2.6092106162995367e-14 5.6916344161934569e+05 1.0816265432881282e+06 4.2167003083652882e+04 -999 1.17396348e-01 5.225010374e-01 -7.04909195e-02
 14 4 430284 9.7978019305279839e+05 5.1104394652215589e+05 2.5665638453599229e-14 5.3311048696358211e+05 1.0049835113392171e+06 3.9324038209493134e+04 -999 1.18603707e-01 5.144427623e-01 -7.13063860e-02
 15 4 430284 1.1605568239676952e+06 6.6263379894068989e+05 2.5255360581369463e-14 5.8272755606641760e+05 1.2393713813122257e+06 3.7057997632792205e+04 -999 1.19938496e-01 5.047935919e-01 -7.22870454e-02
 16 4 430284 9.7712109999353625e+05 5.8386431121245294e+05 2.4810601849313774e-14 5.2291365702165104e+05 1.0377196068916566e+06 3.3948213226009619e+04 -999 1.20770302e-01 4.978924412e-01 -7.29263967e-02
 17 4 430284 8.6591993505018519e+05 4.8111090954627754e+05 2.4299163587845036e-14 4.9120062704926747e+05 8.8029343552465260e+05 3.1491431167189381e+04 -999 1.21787740e-01 4.889148792e-01 -7.36826898e-02
 18 4 430284 8.2258818166162039e+05 4.7176742625867436e+05 2.3873296444794719e-14 4.6972159751835006e+05 8.3186125980175473e+05 2.9425400136119948e+04 -999 1.22544319e-01 4.816433021e-01 -7.41957112e-02
 19 4 430284 9.6151391705682210e+05 5.1417175032145699e+05 2.3508945693434115e-14 4.8664757375063060e+05 1.0113606578667257e+06 2.7719954432020066e+04 -999 1.23281057e-01 4.740408058e-01 -7.46446854e-02
 20 4 430284 8.7860273580723826e+05 4.1566932189719181e+05 2.3308022569915268e-14 4.5964290345853363e+05 9.1146350324363890e+05 2.6161528264939530e+04 -999 1.23722179e-01 4.690801881e-01 -7.48845278e-02
 21 4 430284 8.0158309840371995e+05 4.2460595552534913e+05 2.2981264481752088e-14 4.3955536392188905e+05 8.2941660832551064e+05 2.4193579910389031e+04 -999 1.24142105e-01 4.634441541e-01 -7.51075185e-02
 22 4 430284 7.1952040652686253e+05 4.1084802925629792e+05 2.2616602176157527e-14 4.0950647605956160e+05 7.3659833519033715e+05 2.2584590829549601e+04 -999 1.24558238e-01 4.572664310e-01 -7.53289654e-02
 23 4 430284 7.4310638653617934e+05 4.1179802334128786e+05 2.2297392825329762e-14 4.0317144223027211e+05 7.6152060524265771e+05 2.1270242892797367e+04 -999 1.24957324e-01 4.505319462e-01 -7.55507434e-02
 24 4 430284 7.4522375308923447e+05 3.7133008167947893e+05 2.2137179202007118e-14 3.9468356916045031e+05 7.6243477249735291e+05 2.0121517678714805e+04 -999 1.25224263e-01 4.453751344e-01 -7.57115162e-02
 25 4 430284 8.0952917222576018e+05 4.1324501766880229e+05 2.2005988198962391e-14 3.9395560476023005e+05 8.5621036551935936e+05 1.9065252500132203e+04 -999 1.25438223e-01 4.408716433e-01 -7.58494276e-02
 26 4 430284 6.8143491868549341e+05 3.6572213951493253e+05 2.1766143243612679e-14 3.6281261816535430e+05 7.1800412069130247e+05 1.7700201407595752e+04 -999 1.25617418e-01 4.362490333e-01 -7.59734987e-02
 27 4 430284 6.0055377485152835e+05 3.4704044293326727e+05 2.1536269746086647e-14 3.3938134906539798e+05 6.1628707744416757e+05 1.6600625585211987e+04 -999 1.25801805e-01 4.313063395e-01 -7.61047204e-02
 28 4 430284 6.1266457122713141e+05 3.3718871538773575e+05 2.1349608036187176e-14 3.2939361354649690e+05 6.2477176648336963e+05 1.5683734627064980e+04 -999 1.25998260e-01 4.259086988e-01 -7.62463772e-02
 29 4 430284 6.2676409343435464e+05 3.1616880143056909e+05 2.1211207714822771e-14 3.2295564300616994e+05 6.4475922268959542e+05 1.4873380963738642e+04 -999 1.26144255e-01 4.218304643e-01 -7.63510475e-02
 30 4 430284 6.9048067263857939e+05 3.6452892145296675e+05 2.1092963571724298e-14 3.2549001938962424e+05 7.3438920009553642e+05 1.4138384009438545e+04 -999 1.26272925e-01 4.181961069e-01 -7.64414556e-02
 31 4 430284 5.7803941769201891e+05 3.1729986334941367e+05 2.0860502021960906e-14 2.9747281368483941e+05 6.1501400016444898e+05 1.3148523691418934e+04 -999 1.26379839e-01 4.146179328e-01 -7.65168436e-02
 32 4 430284 4.9160662600942614e+05 2.8812429910789669e+05 2.0602323663397062e-14 2.7311910908040864e+05 5.0871540447184624e+05 1.2329473705401020e+04 -999 1.26503152e-01 4.105052996e-01 -7.66028151e-02
 33 4 430284 4.7759315753588959e+05 2.7483255194244173e+05 2.0374562270353880e-14 2.5839938632206540e+05 4.8539024554803298e+05 1.1633638671561050e+04 -999 1.26629947e-01 4.062767044e-01 -7.66907388e-02
 34 4 430284 5.3710899708152458e+05 2.8480420504448685e+05 2.0214321510014272e-14 2.5933650640517479e+05 5.5849050076601945e+05 1.1034574261231366e+04 -999 1.26749192e-01 4.022743295e-01 -7.67733306e-02
 35 4 430284 5.3118168474187003e+05 2.6077239665413921e+05 2.0127116275970013e-14 2.5361034636921127e+05 5.5561079176335002e+05 1.0483482620172254e+04 -999 1.26831511e-01 3.994923140e-01 -7.68302599e-02
 36 4 430284 4.5986800818479201e+05 2.5290882520171857e+05 1.9918765783645897e-14 2.3401389129266437e+05 4.8568466209871694e+05 9.7714848101962743e+03 -999 1.26911124e-01 3.963663401e-01 -7.68867754e-02
 37 4 430284 3.8818052595124906e+05 2.3068720879136948e+05 1.9681374799634300e-14 2.1232752121681540e+05 4.0373385229552595e+05 9.1739373333168933e+03 -999 1.27000774e-01 3.929177853e-01 -7.69502748e-02
 38 4 430284 3.6964397568166209e+05 2.1429818367933421e+05 1.9449541889176291e-14 1.9803342700126057e+05 3.7411327459771774e+05 8.6510133987917652e+03 -999 1.27100783e-01 3.891385616e-01 -7.70209302e-02
 39 4 430284 4.0139703843708633e+05 2.1417993647216720e+05 1.9287642408990084e-14 1.9493653159321862e+05 4.1407388247851742e+05 8.1927577205903763e+03 -999 1.27188893e-01 3.858635244e-01 -7.70828926e-02
 40 4 430284 4.2889414409501129e+05 2.3256803732103531e+05 1.9180616189248599e-14 1.9424328235807901e+05 4.5477919479731395e+05 7.7829996329083478e+03 -999 1.27259014e-01 3.832915539e-01 -7.71318912e-02
 41 4 430284 3.6352183824693563e+05 2.0389150982182496e+05 1.8968718188419961e-14 1.7780485227526820e+05 3.8832213679888548e+05 7.2621431020141017e+03 -999 1.27321836e-01 3.806731718e-01 -7.71767563e-02
 42 4 430284 2.9916742027463956e+05 1.8475707952213768e+05 1.8708644469782684e-14 1.6075713550269188e+05 3.1395924090700032e+05 6.8160267522068671e+03 -999 1.27396210e-01 3.776471734e-01 -7.72297819e-02
 43 4 430284 2.7460303638247302e+05 1.6868791853748672e+05 1.8440625428943044e-14 1.4799918843557261e+05 2.7792713664733327e+05 6.4196392558944399e+03 -999 1.27477641e-01 3.744094831e-01 -7.72877215e-02
 44 4 430284 2.9678481150881114e+05 1.7051559214199180e+05 1.8222627244663693e-14 1.4381679871864943e+05 3.0462046014767070e+05 6.0675843653862394e+03 -999 1.27552946e-01 3.714759082e-01 -7.73410991e-02
 45 4 430284 3.2973363707665296e+05 1.8374286545967645e+05 1.8057704834012808e-14 1.4471820083924991e+05 3.4685742279965500e+05 5.7545744129230225e+03 -999 1.27620495e-01 3.688867887e-01 -7.73886762e-02
 46 4 430284 2.7799640538365324e+05 1.6446805376451628e+05 1.7852376170821438e-14 1.3207773769252349e+05 2.9826534101431922e+05 5.3437869169359119e+03 -999 1.27673511e-01 3.665898935e-01 -7.74271709e-02
 47 4 430284 2.2188456695653297e+05 1.4426930989617540e+05 1.7592819212457857e-14 1.1753213699615917e+05 2.3595055428820362e+05 4.9889933736936191e+03 -999 1.27738781e-01 3.638510143e-01 -7.74741382e-02
 48 4 430284 1.9481394490442594e+05 1.3018551483102223e+05 1.7315283950929591e-14 1.0585024328368367e+05 1.9836027339782566e+05 4.6827520038819075e+03 -999 1.27812346e-01 3.608318665e-01 -7.75270252e-02
 49 4 430284 2.0466913258356790e+05 1.2922031918035039e+05 1.7081287612658747e-14 1.0050576233601992e+05 2.0970992357232841e+05 4.3835148292260237e+03 -999 1.27881709e-01 3.580551150e-01 -7.75765221e-02
 50 4 430284 2.2296083493706767e+05 1.3841203173321637e+05 1.6906294103275810e-14 9.8767640278017687e+04 2.3570849625399834e+05 4.1293884426795003e+03 -999 1.27942118e-01 3.556963766e-01 -7.76190202e-02
 51 4 430284 1.8832226465188339e+05 1.2080219330967218e+05 1.6705028414867104e-14 8.9956459157733800e+04 2.0269550861924695e+05 3.7886855670610998e+03 -999 1.27993023e-01 3.534674115e-01 -7.76564296e-02
 52 4 430284 1.5089738055518043e+05 1.0669899100058520e+05 1.6463361355792788e-14 8.0355497498930446e+04 1.6242355659162300e+05 3.4928722510393309e+03 -999 1.28053264e-01 3.508728371e-01 -7.77009093e-02
 53 4 430284 1.2861141014222946e+05 9.6481461311705672e+04 1.6191163180023982e-14 7.1654625071746457e+04 1.3395640822326223e+05 3.2283288967082253e+03 -999 1.28123598e-01 3.479189868e-01 -7.77524831e-02
 54 4 430284 1.2838260936877727e+05 9.2983721284656669e+04 1.5947447756349372e-14 6.6549194690151344e+04 1.3240442532347661e+05 2.9964743950858856e+03 -999 1.28193389e-01 3.450895775e-01 -7.78026262e-02
 55 4 430284 1.3352005379021884e+05 9.3727755035227310e+04 1.5751931936076936e-14 6.3768035211588372e+04 1.4012772058452517e+05 2.7967792519276040e+03 -999 1.28256690e-01 3.426209999e-01 -7.78468547e-02
 56 4 430284 1.1465026117934965e+05 8.5884094953673441e+04 1.5563631378601222e-14 5.8825604672425310e+04 1.2263119065958155e+05 2.5211168219112869e+03 -999 1.28306130e-01 3.404022549e-01 -7.78848163e-02
 57 4 430284 9.2746358629543683e+04 7.8319702878782526e+04 1.5328531773918673e-14 5.3121719927228434e+04 1.0009293837685042e+05 2.2808523767528527e+03 -999 1.28366430e-01 3.377346245e-01 -7.79312621e-02
 58 4 430284 7.6695419362355402e+04 7.1663515261256834e+04 1.5036071915079580e-14 4.7454448630437386e+04 8.1230720430691566e+04 2.0729829389881884e+03 -999 1.28439499e-01 3.346035345e-01 -7.79864997e-02
 59 4 430284 7.1549897643869554e+04 6.7781680755099747e+04 1.4771334644267210e-14 4.3441601045812145e+04 7.4456194484999432e+04 1.8993557831460148e+03 -999 1.28515226e-01 3.315128532e-01 -7.80416109e-02
 60 4 430284 6.9648452060339521e+04 6.5437532743600743e+04 1.4540402236542537e-14 4.0684577005194238e+04 7.2487373641119673e+04 1.7518888781394282e+03 -999 1.28587334e-01 3.287150979e-01 -7.80920898e-02
 61 4 430284 6.0718452740557652e+04 6.1918431915532448e+04 1.4331343060313792e-14 3.7758159237548483e+04 6.3981883634450351e+04 1.5613811057582070e+03 -999 1.28636814e-01 3.262611436e-01 -7.81330790e-02
 62 4 430284 5.0222823519110476e+04 5.8113503690685815e+04 1.4057406166195757e-14 3.4319815009838421e+04 5.3104279471132868e+04 1.4011533081205355e+03 -999 1.28696779e-01 3.232674592e-01 -7.81828136e-02
 63 4 430284 4.1547943311154682e+04 5.4236347196499592e+04 1.3710121766589454e-14 3.0634515560251264e+04 4.3226434370708543e+04 1.2679685126759659e+03 -999 1.28769945e-01 3.196664146e-01 -7.82414805e-02
 64 4 430284 3.7079911357196295e+04 5.1146806057341644e+04 1.3389012025003850e-14 2.7617589656663480e+04 3.7962930497834277e+04 1.1593965821526569e+03 -999 1.28845249e-01 3.160688664e-01 -7.82982538e-02
 65 4 430284 3.4190045957948685e+04 4.8728980073819745e+04 1.3109593158041947e-14 2.5285228846291324e+04 3.4730773880623383e+04 1.0714680438603093e+03 -999 1.28916144e-01 3.127612721e-01 -7.83488584e-02
 66 4 430284 3.0337558901668192e+04 4.6421511996416033e+04 1.2861062288439858e-14 2.3359243477225191e+04 3.0879843000200141e+04 9.6509708530037824e+02 -999 1.28946905e-01 3.097293653e-01 -7.83783938e-02
 67 4 430284 2.5949473933729914e+04 4.3775168432321669e+04 1.2542008852522754e-14 2.1113327495595004e+04 2.6311777311954509e+04 8.8154763985810359e+02 -999 1.28979829e-01 3.059220055e-01 -7.84097082e-02
 68 4 430284 2.2133653082948626e+04 4.0921910862759018e+04 1.2153973239436263e-14 1.8709816592072981e+04 2.2268223115522374e+04 8.2561028036031666e+02 -999 1.29016475e-01 3.012553809e-01 -7.84385114e-02
 69 4 430284 1.9670961559320644e+04 3.8438628797460515e+04 1.1795346665096596e-14 1.6586526087301561e+04 1.9857420301999609e+04 8.1612078257574831e+02 -999 1.29058208e-01 2.965090966e-01 -7.84517561e-02
 70 4 430284 1.8075017482174837e+04 3.6407817802886973e+04 1.1471863725420749e-14 1.5027515450221745e+04 1.8481447588938969e+04 8.2148107285343201e+02 -999 1.29104151e-01 2.919920712e-01 -7.84532686e-02
 71 4 430284 1.6234528520929622e+04 3.4368640776047068e+04 1.1152380355172344e-14 1.3668757056203074e+04 1.6984229846631490e+04 8.4929237469307463e+02 -999 1.29154741e-01 2.869827071e-01 -7.84090970e-02
 72 4 430284 1.4599581823917961e+04 3.2069919039545799e+04 1.0751580916525951e-14 1.2413379354570749e+04 1.5755677417161180e+04 9.1850907632075109e+02 -999 1.29272240e-01 2.803505654e-01 -7.83486947e-02
 73 4 430284 1.3833393808043491e+04 2.9783442816368064e+04 1.0342029636004698e-14 1.1631172641751689e+04 1.5404910726504342e+04 1.1233873328534003e+03 -999 1.29525601e-01 2.720999677e-01 -7.82865772e-02
 74 4 430284 1.3959438757249280e+04 2.7987187723373467e+04 1.0016598800539866e-14 1.1448069112195581e+04 1.5846852205902178e+04 1.4884584672756002e+03 -999 1.29947284e-01 2.636264027e-01 -7.82649620e-02
 75 4 430284 1.4397469212930355e+04 2.6615823606386446e+04 9.7533031868469699e-15 1.1505692346530004e+04 1.6506900416601762e+04 2.0525370018800540e+03 -999 1.30549908e-01 2.551862003e-01 -7.83150789e-02
 76 4 430284 1.4145451185405476e+04 2.4577738981749364e+04 3.8856399611776118e-13 1.0656245816057492e+04 1.6434137060387071e+04 3.8213015445348829e+03 -999 1.31873371e-01 2.433467054e-01 -7.86197739e-02
 77 4 430284 1.4283446124740025e+04 2.2794429796766784e+04 1.0533784891366556e-12 1.0031667437858399e+04 1.6585471104744243e+04 1.0986095816897798e+04 -999 1.34285265e-01 2.266356539e-01 -7.94246726e-02
 78 4 430284 1.4559341792379924e+04 2.2311315910876230e+04 1.8014538922901153e-12 9.7930640395509181e+03 1.6669005784551671e+04 2.6074147729616154e+04 -999 1.37613957e-01 2.081908169e-01 -8.10024974e-02
 79 4 430284 1.4700265217839702e+04 2.2504281821823919e+04 2.3753649848776050e-12 9.7459433566605312e+03 1.6535865087098678e+04 5.7446076928475624e+04 -999 1.41226925e-01 1.899246277e-01 -8.34307886e-02
 80 4 430284 1.4933520669789401e+04 2.5017030696427770e+04 2.6483339545341632e-12 9.7783164627087772e+03 1.7258642555001999e+04 1.2926314194936868e+05 -999 1.44669173e-01 1.714143940e-01 -8.67866129e-02
 81 4 430284 1.2702728167151765e+04 1.8218110252317165e+04 2.1014388535874388e-12 8.8034483130527187e+03 1.3611299545619257e+04 1.8444595148660557e+05 -999 1.48857238e-01 1.453991477e-01 -9.31355701e-02
 82 4 430284 1.1078778353137057e+04 1.7518179204982614e+04 1.8638877353764496e-12 7.9580224612077564e+03 1.1818050466786215e+04 1.9131229539303880e+05 -999 1.50374092e-01 1.254074872e-01 -9.92213160e-02
 83 4 430284 1.0524554006158041e+04 2.8840794845216144e+04 1.7486143715456092e-12 7.5574901322583000e+03 1.3086973705113687e+04 1.1533044171442947e+05 -999 1.49955906e-01 1.206242182e-01 -1.00715365e-01
 84 4 430284 1.0347657927906215e+04 3.0004067043158542e+04 1.7156921176189514e-12 7.2212683622333270e+03 1.3724724892361912e+04 6.1842813295214764e+04 -999 1.49744208e-01 1.192103077e-01 -1.01132919e-01
 85 4 430284 1.0213822482294434e+04 3.0697815793632741e+04 1.6923926860534883e-12 7.0810065257492315e+03 1.4131504568777846e+04 3.3239823032463799e+04 -999 1.49567130e-01 1.181176146e-01 -1.01451254e-01
 86 4 430284 8.8370775368410868e+03 1.6010734033333511e+04 1.3447920635129480e-12 5.7500437115145705e+03 9.0276426521053800e+03 1.3040135380734233e+05 -999 1.46967959e-01 1.079601129e-01 -1.04003325e-01
 87 4 430284 7.8876958986845548e+03 1.4331985892254426e+04 1.2575310426490313e-12 4.8480796963738794e+03 7.8912837044797088e+03 8.1252139608909405e+04 -999 1.44559890e-01 1.016695732e-01 -1.05368754e-01
 88 4 430284 7.4540313445040510e+03 1.3223596632933901e+04 1.2212437565085031e-12 4.3966882305255622e+03 7.3781472863885356e+03 3.5449998355236159e+04 -999 1.43621830e-01 9.807988750e-02 -1.06203696e-01
 89 4 430284 7.1373898438199221e+03 1.2464058844312091e+04 1.2005347973969386e-12 4.2687860476830765e+03 7.0363153963633895e+03 1.7888351109850570e+04 -999 1.43527625e-01 9.629134224e-02 -1.06702627e-01
 90 4 430284 7.2101892155739624e+03 1.1574949604803505e+04 1.1803384900743486e-12 4.2434647479085970e+03 7.0079814412728911e+03 2.0328703549057169e+04 -999 1.43772323e-01 9.389825074e-02 -1.07465033e-01
 91 4 430284 5.7677243489303492e+03 8.8722227153262320e+03 1.0684620803250072e-12 3.8103934099670591e+03 5.5539538147534340e+03 5.2549948355836983e+04 -999 1.50753572e-01 8.788541914e-02 -1.11957969e-01
 92 4 430284 5.8471367611355518e+03 8.8840412413833892e+03 1.2773343767600411e-12 3.9673158539894612e+03 5.6596309557545810e+03 7.2142550368933982e+04 -999 1.66259149e-01 8.043700799e-02 -1.20311026e-01
 93 4 430284 6.4756839049312948e+03 1.1345254691382670e+04 1.5137782429125271e-12 3.8095803877601725e+03 6.5700801242049793e+03 7.5821305808984427e+04 -999 1.87071077e-01 7.448630281e-02 -1.31168811e-01
 94 4 430284 6.8758040441734775e+03 1.1341928362600433e+04 1.5059568071342996e-12 3.3648433733182874e+03 8.3087413129280540e+03 5.4564681396505592e+04 -999 2.02008508e-01 7.146714336e-02 -1.39107127e-01
 95 4 430284 6.6068243553907050e+03 9.7908638408579009e+03 1.4247868546519527e-12 3.2429692810736078e+03 9.1859018753573109e+03 3.8617276323131868e+04 -999 2.13617849e-01 6.932257854e-02 -1.45153151e-01
 96 4 430284 3.8270762632155729e+03 4.7980013949940985e+03 1.2563441177608861e-12 2.7990256710154231e+03 4.0379704355857516e+03 4.1363162604872152e+04 -999 2.35046172e-01 6.534780426e-02 -1.55882468e-01
 97 4 430284 3.3629793647560487e+03 3.8931151226226248e+03 1.2152091694185808e-12 2.1244456923535877e+03 3.2982627334686699e+03 4.3361128117724671e+04 -999 2.58005896e-01 6.108058691e-02 -1.66281106e-01
 98 4 430284 3.2124295573933750e+03 3.8923057188229891e+03 1.0851642616145850e-12 1.7859106905536350e+03 3.0818665774103947e+03 8.7741680645494707e+04 -999 2.81411052e-01 5.667768034e-02 -1.75081767e-01
 99 4 430284 3.3430011328286087e+03 4.1281899652537322e+03 9.5274927976526931e-13 1.6196981612487782e+03 3.2362951867751758e+03 1.2325594253844036e+05 -999 3.06597883e-01 5.237345277e-02 -1.82282792e-01
 100 4 430284 3.6653236723991049e+03 4.3554475382464971e+03 8.2751473682658086e-13 1.4890638742562753e+03 3.6223328046241304e+03 9.9359966882358814e+04 -999 3.29183578e-01 4.913243400e-02 -1.87040062e-01
 101 4 430284 3.3546950650193357e+03 3.6124928524415182e+03 1.0930545875579657e-12 1.3454404514921137e+03 3.2983269496863954e+03 6.8365149653075438e+04 -999 3.48090689e-01 4.662217865e-02 -1.90136432e-01
 102 4 430284 3.4684779033120280e+03 3.3578093154215690e+03 1.3951751569434029e-12 1.1757512739865481e+03 3.4547735722926359e+03 4.7299687712367515e+04 -999 3.68007903e-01 4.442673222e-02 -1.92799489e-01
 103 4 430284 3.6598411983162632e+03 3.2524986201491306e+03 1.4612349222739514e-12 1.0437275001837017e+03 3.6863305153908482e+03 2.2467844974464984e+04 -999 3.83241572e-01 4.310475276e-02 -1.94464568e-01
 104 4 430284 3.8570409030108976e+03 3.1689969757389499e+03 1.4655742446868978e-12 9.7832581284815660e+02 3.9213675678791501e+03 1.7708010393420991e+04 -999 3.94342932e-01 4.231009499e-02 -1.95476410e-01
 105 4 430284 4.0456487333928344e+03 3.1159281572500126e+03 1.4613450158218592e-12 9.4996733561070778e+02 4.1452401725572036e+03 1.5284413896749360e+04 -999 4.02582181e-01 4.180764205e-02 -1.96108839e-01
 106 4 430284 3.6227870445690687e+03 2.7919874334385941e+03 1.2368174415155120e-12 8.6294458910679236e+02 3.6566175933143027e+03 1.6513018034395176e+04 -999 4.18015560e-01 4.098665126e-02 -1.97215716e-01
 107 4 430284 3.5802371619803503e+03 2.5978664299182287e+03 1.3195038721928693e-12 8.3961953070859488e+02 3.6095301503369046e+03 1.4161480445252666e+04 -999 4.34992120e-01 4.014311221e-02 -1.98015909e-01
 108 4 430284 3.7893446148021217e+03 2.5512169948859205e+03 1.4417637289066315e-12 8.0197655864272269e+02 3.8812235154071409e+03 1.1300656649317425e+04 -999 4.49965810e-01 3.947699690e-02 -1.98365094e-01
 109 4 430284 4.1104931369255919e+03 2.5957278261191277e+03 1.5321638841071697e-12 7.8115153060288992e+02 4.2930051148789917e+03 9.8720236217967104e+03 -999 4.62194760e-01 3.901283670e-02 -1.98387362e-01
 110 4 430284 4.4498873993635034e+03 2.6871888029264933e+03 1.5946789123855960e-12 7.8935230870340229e+02 4.7258156844912173e+03 8.9911369696076526e+03 -999 4.71815054e-01 3.872558993e-02 -1.98244676e-01
 111 4 430284 3.8403933694608322e+03 2.3981044584927627e+03 1.3335966836509281e-12 6.7630629940306130e+02 3.9733292266477233e+03 8.9128568640015692e+03 -999 4.83703009e-01 3.848928878e-02 -1.97741376e-01
 112 4 430284 3.5622926219468195e+03 2.2512523437209347e+03 1.2933630518858805e-12 6.2346790390095202e+02 3.6162627594728456e+03 8.8092937748423901e+03 -999 4.96460367e-01 3.832606132e-02 -1.96991868e-01
 113 4 430284 3.5182668625867868e+03 2.2001703905041554e+03 1.3599499132474239e-12 5.8029358544509455e+02 3.5787008022564937e+03 8.7114331117227448e+03 -999 5.10418730e-01 3.823458002e-02 -1.95921593e-01
 114 4 430284 3.5031401569818340e+03 2.1650148425397942e+03 1.4115216368934403e-12 5.5415128214322942e+02 3.5841423335153759e+03 7.8770709464534566e+03 -999 5.20713677e-01 3.822762851e-02 -1.94899535e-01
 115 4 430284 3.4952503377700195e+03 2.1384714752845061e+03 1.4508735609408198e-12 5.3727607711387031e+02 3.5890153865321022e+03 7.2996666739086186e+03 -999 5.28645458e-01 3.826609627e-02 -1.93947954e-01
 116 4 430284 3.2228738281895335e+03 2.0180254014189793e+03 1.2470397162846441e-12 4.9747606325339785e+02 3.2667835813007869e+03 7.0373607076297094e+03 -999 5.36484453e-01 3.838098092e-02 -1.92818115e-01
 117 4 430284 3.0091966967478625e+03 1.9236532700024356e+03 1.2441321476416761e-12 4.6896524414169215e+02 3.0118988664105509e+03 7.2112623475148584e+03 -999 5.46105917e-01 3.855658649e-02 -1.91352977e-01
 118 4 430284 2.8750074665455409e+03 1.8562605593045080e+03 1.4092245141489794e-12 4.4082354479305155e+02 2.8601947943173323e+03 7.0912763518836464e+03 -999 5.56496272e-01 3.878183584e-02 -1.89668270e-01
 119 4 430284 2.7734276538413774e+03 1.8068554501058209e+03 1.5808379715606672e-12 4.1507384392758223e+02 2.7559478986267968e+03 6.8500746729137372e+03 -999 5.65522166e-01 3.900227025e-02 -1.88116188e-01
 120 4 430284 2.6951484472566394e+03 1.7719143128896826e+03 1.7332456507714081e-12 3.9838478917326182e+02 2.6736650921555056e+03 6.2324276604697743e+03 -999 5.71857817e-01 3.916696360e-02 -1.86909363e-01
 121 4 430284 2.5803813749789178e+03 1.7164883923876425e+03 1.5358610503140914e-12 3.7659091496058289e+02 2.5492349333777302e+03 6.1847629630032989e+03 -999 5.77958601e-01 3.936061919e-02 -1.85747103e-01
 122 4 430284 2.4675549879926962e+03 1.6620236029355781e+03 1.5684575975656054e-12 3.5427801108929606e+02 2.4278613439503620e+03 6.5187870229769951e+03 -999 5.85560292e-01 3.959213828e-02 -1.84259352e-01
 123 4 430284 2.3642496857048286e+03 1.6078871889291140e+03 1.7911136924612883e-12 3.3261437214262600e+02 2.3180135264099317e+03 6.7160271404186851e+03 -999 5.94542063e-01 3.984176873e-02 -1.82428295e-01
 124 4 430284 2.3037654499356549e+03 1.5763890057881299e+03 2.1064296378403316e-12 3.2347251281125762e+02 2.2521577326852189e+03 6.1257532314644486e+03 -999 6.00155137e-01 3.997286845e-02 -1.81161063e-01
 125 4 430284 2.2530589808792101e+03 1.5499626627896030e+03 2.5424569588761980e-12 3.1839372797858761e+02 2.2004942218976935e+03 6.2738859857123825e+03 -999 6.05901706e-01 4.008938940e-02 -1.79827923e-01
 126 4 430284 2.1728748118640856e+03 1.5180614151024893e+03 2.2049331741174049e-12 3.0385062607067755e+02 2.1176425190211594e+03 6.1233886085163922e+03 -999 6.10417254e-01 4.017263260e-02 -1.78809048e-01
 127 4 430284 2.1097847271465575e+03 1.4767179607288078e+03 1.9438720654556947e-12 2.9285211681221307e+02 2.0479827600970136e+03 6.5773628768045392e+03 -999 6.15876163e-01 4.024633551e-02 -1.77573182e-01
 128 4 430284 2.0669465639886675e+03 1.4268805694415175e+03 1.8067468465020803e-12 2.8485415420331998e+02 2.0024222341486234e+03 6.8984550977402569e+03 -999 6.22004581e-01 4.028200287e-02 -1.76169985e-01
 129 4 430284 2.0249964090744697e+03 1.3866012883783540e+03 1.7613675539806566e-12 2.7862030102548044e+02 1.9611634730639398e+03 6.9682653139025315e+03 -999 6.27765388e-01 4.025182729e-02 -1.74814400e-01
 130 4 430284 2.0015407841465833e+03 1.3564812367586103e+03 1.7505402301801043e-12 2.7541619045334272e+02 1.9322096626975508e+03 6.5186735053475049e+03 -999 6.31227276e-01 4.019174872e-02 -1.73977180e-01
 131 4 430284 1.9207629736065189e+03 1.3144557763482449e+03 1.5035888694935164e-12 2.7311396033735690e+02 1.8497827319579517e+03 6.8008869884502910e+03 -999 6.35181859e-01 4.009225131e-02 -1.73031566e-01
 132 4 430284 1.8577138875301202e+03 1.2665764143946253e+03 1.3656959347730472e-12 2.7159567757934013e+02 1.7841589631489205e+03 7.1019861776259268e+03 -999 6.39938815e-01 3.992749098e-02 -1.71923629e-01
 133 4 430284 1.8205923526205277e+03 1.2135839980532296e+03 1.3363729275540225e-12 2.6608149174115795e+02 1.7426260417387064e+03 7.2518759189736838e+03 -999 6.44996653e-01 3.966756194e-02 -1.70749139e-01
 134 4 430284 1.8162529719421118e+03 1.1885085751383149e+03 1.3345347223293172e-12 2.7038970206452092e+02 1.7408012336283227e+03 7.1728464890056493e+03 -999 6.49377773e-01 3.937124301e-02 -1.69768086e-01
 135 4 430284 1.8029266978941503e+03 1.1818146097744475e+03 1.3288014712081635e-12 2.7295812309075075e+02 1.7286455469988839e+03 6.9267743695932031e+03 -999 6.52333961e-01 3.912180313e-02 -1.69126959e-01
 136 4 430284 1.7420482256753910e+03 1.1404532164191662e+03 1.2126174242823738e-12 2.7179336234679539e+02 1.6611381437519431e+03 6.9869294376792759e+03 -999 6.55234415e-01 3.883742115e-02 -1.68526165e-01
 137 4 430284 1.7105194519207021e+03 1.1028344356972539e+03 1.3431625059683280e-12 2.7423122684381775e+02 1.6253360673161674e+03 7.1977267172306820e+03 -999 6.58943580e-01 3.843458082e-02 -1.67813826e-01
 138 4 430284 1.7001609799412852e+03 1.0683331002801463e+03 1.7720949770210244e-12 2.7595208405227680e+02 1.6169222350749542e+03 7.2972483561422432e+03 -999 6.63470738e-01 3.786940277e-02 -1.67005413e-01
 139 4 430284 1.6894707412195125e+03 1.0512275107679088e+03 2.6279120223646714e-12 2.7771101140052286e+02 1.6037716414184010e+03 7.2341174398910207e+03 -999 6.66288857e-01 3.745508473e-02 -1.66536037e-01
 140 4 430284 1.7096447811615303e+03 1.0612243545561075e+03 3.6629351767195330e-12 2.8423222192918644e+02 1.6291477971406989e+03 7.4119273016579955e+03 -999 6.69557170e-01 3.693611226e-02 -1.66029431e-01
 141 4 430284 1.6409582284494140e+03 1.0349210353926628e+03 3.0473176428466336e-12 2.8168283936961194e+02 1.5556428171112107e+03 7.4018979375098315e+03 -999 6.71958236e-01 3.652914577e-02 -1.65702153e-01