TITLE = "005.02 ALPHA 3.90 GRIDLEVEL 2"

VARIABLES = "ITERATION"  "GRID_LEVEL"  "GRID_SIZE"  "CONTINUITY"  "MOMENTUMX"  "MOMENTUMY"  "MOMENTUMZ"  "ENERGY"  "TURB1"  "TURB2"  "CL_TOT"  "CD_TOT"  "CM_TOT"

DATASETAUXDATA ParticipantID   = "005"
DATASETAUXDATA SubmissionDate  = "10-31-2024"
DATASETAUXDATA Name            = "Jeffrey A. Housman"
DATASETAUXDATA Email           = "jeffrey.a.housman@nasa.gov"
DATASETAUXDATA Institution     = "NASA Ames Research Center"
DATASETAUXDATA SolverName      = "LAVA Curvilinear"
DATASETAUXDATA BasicAlgorithm  = "RANS"
DATASETAUXDATA TurbulenceModel = "SA-RC-comp-neg"
DATASETAUXDATA GridId          = "Multiblock"
DATASETAUXDATA Discretization  = "Finite difference"
DATASETAUXDATA Order           = "2"
DATASETAUXDATA DistanceCalc    = "Exact"
DATASETAUXDATA Notes           = " "

ZONE T = "005.02 - Alpha 3.90 - Grid Level 2"
AUXDATA Tstatic         = "271.0"
AUXDATA Deltat          = "-999"
AUXDATA GridFileName    = "ONERA-OAT15A_230mmChord_780mmSpan_upZ_2024_06_25-Structured_23mm_Level-2.x"
AUXDATA Misc            = " "
 0 2 119662 1.8007438518082004e+05 3.6702932748421415e+05 3.0557499119366627e-14 1.6145870498034981e+05 1.8478482182150159e+05 5.1605083134435344e+05 -999 9.78120254e-03 4.531008865e-01 -6.53726587e-03
 1 2 119662 2.4463782118741155e+05 2.9519470138668589e+05 2.7495600942197731e-14 1.3316168378421376e+05 2.3834859881938924e+05 3.3219577229360421e+05 -999 5.67758772e-02 4.482203614e-01 -2.49420263e-02
 2 2 119662 2.7241730686958175e+05 2.5949066836057618e+05 3.2194626259768583e-14 1.4763282017510780e+05 2.6199689787725138e+05 2.1323178952496330e+05 -999 1.09459900e-01 4.535048772e-01 -4.50434199e-02
 3 2 119662 2.8552442774631613e+05 2.3207086524610728e+05 2.7407713552798167e-13 1.6674324948025041e+05 2.7238841720205301e+05 1.3571883122538327e+05 -999 1.56523226e-01 4.614309350e-01 -6.40158917e-02
 4 2 119662 2.9052775141905824e+05 2.1673934442897246e+05 1.2415972543525060e-13 1.8329029166002088e+05 2.7558985472189874e+05 8.4950934067904585e+04 -999 1.97063479e-01 4.697255247e-01 -7.87969377e-02
 5 2 119662 2.9278376127623557e+05 2.1537947396439244e+05 1.3347662625559769e-13 1.9514266946667418e+05 2.7768178138361993e+05 4.2079499899199356e+04 -999 2.29740579e-01 4.759913617e-01 -8.99242935e-02
 6 2 119662 2.9121202565749519e+05 2.2501458330132317e+05 1.2197783406594728e-13 2.0136911189855167e+05 2.7598860792270140e+05 3.3757445382028454e+04 -999 2.52796648e-01 4.793777136e-01 -9.81873443e-02
 7 2 119662 2.9245584742150147e+05 2.3197293496725449e+05 1.0123516892176496e-12 2.0111502612455140e+05 2.7745633942309720e+05 2.7769817669517877e+04 -999 2.69388432e-01 4.796658931e-01 -1.04369784e-01
 8 2 119662 2.9548457376216375e+05 2.2848169249679695e+05 2.7216620428062945e-12 1.9638571604553892e+05 2.8363663820036111e+05 2.3738853586487738e+04 -999 2.83552137e-01 4.773823249e-01 -1.09711944e-01
 9 2 119662 2.9478697430058662e+05 2.1360516544773214e+05 2.4777630396212036e-12 1.8929315879975911e+05 2.8686102108835720e+05 2.0892574122351645e+04 -999 2.96947819e-01 4.735827053e-01 -1.14331739e-01
 10 2 119662 2.8871301569188334e+05 1.9714305010235481e+05 2.2877409880460061e-12 1.8160881915229472e+05 2.8332215789380122e+05 1.8637431397510933e+04 -999 3.09192209e-01 4.693157298e-01 -1.18112296e-01
 11 2 119662 2.7945480966288631e+05 1.8873419062466032e+05 2.0558696182932466e-12 1.7550670903854663e+05 2.7498447763330868e+05 1.6807857291133907e+04 -999 3.19184026e-01 4.652593370e-01 -1.21220322e-01
 12 2 119662 2.7054042299418012e+05 1.8334001691929720e+05 3.3574609288476458e-11 1.6964465207474213e+05 2.6649134273099579e+05 1.5322995769136562e+04 -999 3.26438045e-01 4.615037149e-01 -1.23390286e-01
 13 2 119662 2.6249618476397148e+05 1.7572054919702499e+05 9.0612002576554816e-11 1.6264587106979624e+05 2.6057134843783439e+05 1.3997202800447278e+04 -999 3.31356906e-01 4.579025406e-01 -1.25089380e-01
 14 2 119662 2.5433025875984726e+05 1.6665223383672760e+05 3.0849403483618312e-11 1.5495916677523436e+05 2.5353400022031699e+05 1.2899260788429636e+04 -999 3.34874116e-01 4.543651350e-01 -1.26521523e-01
 15 2 119662 2.4352743443590362e+05 1.6600237373991022e+05 1.3648264505337799e-10 1.4827044309982902e+05 2.4280524445940775e+05 1.1991172422506053e+04 -999 3.37703809e-01 4.504873978e-01 -1.27774309e-01
 16 2 119662 2.2944772322555602e+05 1.6303495550844030e+05 1.1796401675876558e-10 1.4032441860925657e+05 2.2849417983664243e+05 1.0990309653493678e+04 -999 3.40332854e-01 4.450504006e-01 -1.28946353e-01
 17 2 119662 2.1856509960604925e+05 1.5160650210630527e+05 2.1968950528592122e-10 1.3241755359088656e+05 2.1909531522017875e+05 1.0131727962370709e+04 -999 3.42572415e-01 4.389135669e-01 -1.29679507e-01
 18 2 119662 2.0473058202858680e+05 1.4169453556124357e+05 2.3254160697779954e-10 1.2309492522274618e+05 2.0551319521433613e+05 9.3709928562138957e+03 -999 3.44247906e-01 4.332156274e-01 -1.30110226e-01
 19 2 119662 1.9368234592876182e+05 1.3375174673431885e+05 1.8124665728634586e-10 1.1519332404132637e+05 1.9464594946957866e+05 8.7074904170560712e+03 -999 3.45597743e-01 4.277093515e-01 -1.30433227e-01
 20 2 119662 1.8309586797165064e+05 1.2468164012194068e+05 2.2960862448252248e-10 1.0721065081117490e+05 1.8484511476952801e+05 8.1044442459711236e+03 -999 3.46710719e-01 4.226104803e-01 -1.30732374e-01
 21 2 119662 1.6849737993825570e+05 1.1673974476735796e+05 1.9706588188984145e-10 9.8892410255369556e+04 1.7045852527779280e+05 7.4528487802824447e+03 -999 3.47515749e-01 4.180866540e-01 -1.31008116e-01
 22 2 119662 1.5453510264432785e+05 1.1189582133407392e+05 3.0632487766497931e-10 9.1545899117272085e+04 1.5631815534069698e+05 6.9026395222259916e+03 -999 3.48196958e-01 4.137422976e-01 -1.31235279e-01
 23 2 119662 1.4185322007045679e+05 1.0528724036082895e+05 3.9476591138367092e-10 8.3844168804466215e+04 1.4318217604129401e+05 6.4148028556891277e+03 -999 3.48759905e-01 4.095795682e-01 -1.31428838e-01
 24 2 119662 1.3297038342429238e+05 9.6811040312632482e+04 3.9448030903324021e-10 7.6950582406364221e+04 1.3482800097148781e+05 5.9864169194137157e+03 -999 3.49241485e-01 4.053736765e-01 -1.31589806e-01
 25 2 119662 1.2422480123998319e+05 8.9425855541252677e+04 2.9550942597807156e-10 7.0779398759165633e+04 1.2647248725157247e+05 5.6103758217478062e+03 -999 3.49642771e-01 4.014869666e-01 -1.31713555e-01
 26 2 119662 1.1245409294021544e+05 8.3002542532066349e+04 2.5643083558586934e-10 6.4554612477558308e+04 1.1464499509684573e+05 5.1705300085643648e+03 -999 3.49964978e-01 3.977985793e-01 -1.31806340e-01
 27 2 119662 1.0102199575579853e+05 7.8732244588908492e+04 3.2663762476725535e-10 5.8953283799710152e+04 1.0298996406960885e+05 4.7816424800195946e+03 -999 3.50300287e-01 3.939466041e-01 -1.31879528e-01
 28 2 119662 9.1239810387659425e+04 7.3262399986473800e+04 3.1326917702587884e-10 5.3514749209894166e+04 9.3000397399453839e+04 4.4293392833875168e+03 -999 3.50610994e-01 3.900576038e-01 -1.31950674e-01
 29 2 119662 8.2837932551664067e+04 6.8041375691027046e+04 3.6664128174080879e-10 4.8517016360560716e+04 8.4485511502123525e+04 4.1208692641692096e+03 -999 3.50894965e-01 3.864408636e-01 -1.32020987e-01
 30 2 119662 7.5408290857277520e+04 6.2456900950302588e+04 4.2165112072153627e-10 4.3929694087647316e+04 7.6840789398244873e+04 3.8476047656754836e+03 -999 3.51152790e-01 3.829503561e-01 -1.32088346e-01
 31 2 119662 6.7308249888686376e+04 5.8091803170155545e+04 3.5728935747772138e-10 3.9809847881771755e+04 6.8865729304434004e+04 3.5239010278699766e+03 -999 3.51354077e-01 3.798455894e-01 -1.32149407e-01
 32 2 119662 5.9601024059776471e+04 5.4463278425045712e+04 3.9755681986351424e-10 3.6083151570205773e+04 6.1006447029053888e+04 3.2466651066268591e+03 -999 3.51567203e-01 3.766636894e-01 -1.32200947e-01
 33 2 119662 5.2853021907514667e+04 5.0820278928768399e+04 4.2321710336250477e-10 3.2621086605944965e+04 5.3948434150402674e+04 3.0026368508720216e+03 -999 3.51782349e-01 3.733662695e-01 -1.32254896e-01
 34 2 119662 4.7276565502783458e+04 4.7584399615790571e+04 4.3100565848232644e-10 2.9690185241569052e+04 4.8038148112776886e+04 2.7839823056201340e+03 -999 3.51984447e-01 3.703057104e-01 -1.32306103e-01
 35 2 119662 4.2672852381811244e+04 4.4382196934143431e+04 4.0512671862045469e-10 2.7171464036074405e+04 4.3228436284420997e+04 2.5870342341057867e+03 -999 3.52173314e-01 3.673667634e-01 -1.32351881e-01
 36 2 119662 3.8165908685073096e+04 4.1628116045478666e+04 3.9755284523723312e-10 2.4972575430438013e+04 3.8796112112371789e+04 2.3535685081104311e+03 -999 3.52342984e-01 3.646632517e-01 -1.32387371e-01
 37 2 119662 3.3922155710427236e+04 3.9284064688537706e+04 3.8815305977002113e-10 2.3027895594990085e+04 3.4481843493681925e+04 2.1505525714700025e+03 -999 3.52526375e-01 3.618112561e-01 -1.32426064e-01
 38 2 119662 3.0077924987076676e+04 3.7082647408775403e+04 3.8281609956012052e-10 2.1267969714040828e+04 3.0384841423282534e+04 1.9733295107861920e+03 -999 3.52727076e-01 3.587194251e-01 -1.32469236e-01
 39 2 119662 2.6946417927865979e+04 3.5104366637359053e+04 3.8189010282411842e-10 1.9807698884066402e+04 2.6995850903794071e+04 1.8183322189532398e+03 -999 3.52927832e-01 3.556692131e-01 -1.32512188e-01
 40 2 119662 2.4464673679224114e+04 3.3423001474207624e+04 3.7527850618885549e-10 1.8646923048639015e+04 2.4276355409597636e+04 1.6787542801923757e+03 -999 3.53124129e-01 3.527767960e-01 -1.32554415e-01
 41 2 119662 2.2320398339236377e+04 3.1862134524014298e+04 3.6664987353948977e-10 1.7565991893762359e+04 2.2045432261017770e+04 1.5147803841484763e+03 -999 3.53308055e-01 3.500171398e-01 -1.32588406e-01
 42 2 119662 2.0396469618494262e+04 3.0364405462584167e+04 3.3817050285143735e-10 1.6554767562476434e+04 2.0022896136880172e+04 1.3737446814114705e+03 -999 3.53507289e-01 3.470329559e-01 -1.32624201e-01
 43 2 119662 1.8708468305654456e+04 2.8927257805460758e+04 3.2369850345102679e-10 1.5612053976678420e+04 1.8203815774502156e+04 1.2539184817675450e+03 -999 3.53714563e-01 3.438898592e-01 -1.32662085e-01
 44 2 119662 1.7246318746328947e+04 2.7561477141420954e+04 3.2635243488514598e-10 1.4725536219502159e+04 1.6632757853698386e+04 1.1526139894635562e+03 -999 3.53920699e-01 3.406794458e-01 -1.32698214e-01
 45 2 119662 1.6052851191224034e+04 2.6333842591569719e+04 3.2588792171999742e-10 1.3931235146325518e+04 1.5377027289665784e+04 1.0644494425479231e+03 -999 3.54113116e-01 3.375816341e-01 -1.32729038e-01
 46 2 119662 1.4879582464640471e+04 2.5115566289920669e+04 3.1238799676460254e-10 1.3019363855352323e+04 1.4200313196799434e+04 9.7261713351231322e+02 -999 3.54276693e-01 3.344311466e-01 -1.32746720e-01
 47 2 119662 1.3814169051609528e+04 2.3937585042270988e+04 3.2188888433891008e-10 1.2125795750131165e+04 1.3176739755273038e+04 8.9984458964244232e+02 -999 3.54422780e-01 3.311907475e-01 -1.32756694e-01
 48 2 119662 1.2954538082652523e+04 2.2891277679641898e+04 3.0090215625971491e-10 1.1337738758715499e+04 1.2400682254258989e+04 8.4510580061724852e+02 -999 3.54539009e-01 3.280999093e-01 -1.32756709e-01
 49 2 119662 1.2080640424016070e+04 2.1874821013393957e+04 2.9425527378488085e-10 1.0551522784540281e+04 1.1625593720456209e+04 8.0529885528281443e+02 -999 3.54623995e-01 3.249446340e-01 -1.32744990e-01
 50 2 119662 1.1311157982157431e+04 2.0848198079026046e+04 2.8468291571979262e-10 9.7640831020152527e+03 1.0994825586810286e+04 7.7569493894773188e+02 -999 3.54680122e-01 3.214933763e-01 -1.32718130e-01
 51 2 119662 1.0570151866759701e+04 1.9823150040468252e+04 2.7446148561144079e-10 8.9092692443975939e+03 1.0430400197834781e+04 7.5548178778363229e+02 -999 3.54639043e-01 3.177154915e-01 -1.32655372e-01
 52 2 119662 1.0013637482098409e+04 1.8857486013375950e+04 2.6887253883745169e-10 8.1624127345367015e+03 1.0070790564967820e+04 7.3643567063572743e+02 -999 3.54520188e-01 3.136694774e-01 -1.32561807e-01
 53 2 119662 9.7043321044024397e+03 1.8063210862300719e+04 2.5577977559202428e-10 7.6018234894866382e+03 9.9422798018617432e+03 7.0970758012806675e+02 -999 3.54329980e-01 3.097973473e-01 -1.32444319e-01
 54 2 119662 9.5786684630969939e+03 1.7372482705478964e+04 2.4788111161678774e-10 7.2062050619499496e+03 9.9821870316223212e+03 6.8247578387925478e+02 -999 3.54062867e-01 3.058284445e-01 -1.32296295e-01
 55 2 119662 9.5468249162887369e+03 1.6725632150413549e+04 2.5117829282895060e-10 6.9369388451206787e+03 1.0095227149990214e+04 6.6222451793866628e+02 -999 3.53693196e-01 3.014305297e-01 -1.32100293e-01
 56 2 119662 9.5628173384072688e+03 1.6049760113526156e+04 2.4771504924327374e-10 6.8028231549484681e+03 1.0268253638250959e+04 6.6086726628407393e+02 -999 3.53053271e-01 2.958856814e-01 -1.31799902e-01
 57 2 119662 9.6883599187421223e+03 1.5452150818203600e+04 2.5564639210024403e-10 6.8319526392514572e+03 1.0538616430983533e+04 6.7892023794376792e+02 -999 3.52267300e-01 2.897611859e-01 -1.31435739e-01
 58 2 119662 9.8388232904876932e+03 1.4965972664830901e+04 1.9577547444530856e-07 6.9180475770743860e+03 1.0804340805234599e+04 6.7780927938967557e+02 -999 3.51450627e-01 2.837196821e-01 -1.31058883e-01
 59 2 119662 9.9889147899701420e+03 1.4543181670121603e+04 2.2596632664958794e-07 7.0038226307325858e+03 1.1040235095848022e+04 6.9192486991584053e+02 -999 3.50622992e-01 2.775877356e-01 -1.30678219e-01
 60 2 119662 1.0081613110745317e+04 1.4071569647979386e+04 1.5994486916383128e-07 7.0535697071761833e+03 1.1191938296249378e+04 7.2188334311476649e+02 -999 3.49724209e-01 2.703355302e-01 -1.30243807e-01
 61 2 119662 1.0135522924301915e+04 1.3554081428641013e+04 9.8315370206464317e-08 6.9627057563919680e+03 1.1258832297950737e+04 7.5701281292853082e+02 -999 3.48686313e-01 2.608542301e-01 -1.29816809e-01
 62 2 119662 1.0218146722794441e+04 1.3092013475856475e+04 2.8244946899997641e-07 6.7487677950214475e+03 1.1303820679862556e+04 8.0883642208225615e+02 -999 3.48037620e-01 2.510709551e-01 -1.29596687e-01
 63 2 119662 1.0324314140482304e+04 1.2730203102971573e+04 3.8447679613673254e-07 6.5206791087707179e+03 1.1336999063454796e+04 8.9790905699579287e+02 -999 3.47952467e-01 2.413102165e-01 -1.29673715e-01
 64 2 119662 1.0413462635891263e+04 1.2381746847938684e+04 4.4677201580906996e-07 6.3670271950275992e+03 1.1319658929432031e+04 1.1217345267076657e+03 -999 3.48511267e-01 2.315975881e-01 -1.30105364e-01
 65 2 119662 1.0513701193916460e+04 1.2058048632762047e+04 5.3789957696429610e-07 6.2938080553615609e+03 1.1266992739345334e+04 1.5376996240128474e+03 -999 3.49851004e-01 2.210944579e-01 -1.31008138e-01
 66 2 119662 1.0392119772220061e+04 1.1771446433007763e+04 3.8308191763932695e-07 6.3716445515014020e+03 1.0983508543240472e+04 2.4371006066926416e+03 -999 3.53004519e-01 2.071230620e-01 -1.33005541e-01
 67 2 119662 9.8628794828136724e+03 1.1483836842280563e+04 7.8190574081378388e-07 6.7462314574512111e+03 1.0305766180874834e+04 3.4404878233206346e+03 -999 3.57043356e-01 1.932822838e-01 -1.35967575e-01
 68 2 119662 9.1448635599981480e+03 1.1139320689173526e+04 1.1882830319197997e-06 7.1965528394395260e+03 9.4605504888408250e+03 4.2668418909249340e+03 -999 3.60853187e-01 1.811016967e-01 -1.39421125e-01
 69 2 119662 8.5321402538130260e+03 1.0709077100774448e+04 1.4477234854332115e-06 7.5658175915550519e+03 8.6952621869499126e+03 4.7320568758676827e+03 -999 3.63415966e-01 1.704337799e-01 -1.42835782e-01
 70 2 119662 8.0406901565008038e+03 1.0397379376346073e+04 1.2344400542300904e-06 7.5601309669650136e+03 8.1088797705387706e+03 5.2328739696564007e+03 -999 3.63742768e-01 1.627132638e-01 -1.45143496e-01
 71 2 119662 7.2770702576982439e+03 1.0259093018978478e+04 2.5931986509509507e-06 7.3845198448931251e+03 7.2730893341087431e+03 7.1598082600226780e+03 -999 3.60476258e-01 1.522850160e-01 -1.47188457e-01
 72 2 119662 6.6122914201072908e+03 1.1513841299739415e+04 3.2834858936770059e-06 7.0451527277580881e+03 6.5643641908968011e+03 1.0109108606591655e+04 -999 3.53003519e-01 1.429387722e-01 -1.47221980e-01
 73 2 119662 6.0536339656407099e+03 1.3433736425501653e+04 3.8216860193301789e-06 6.4907321381820548e+03 6.0591586859651643e+03 1.0860231177815695e+04 -999 3.42459235e-01 1.345764978e-01 -1.45329795e-01
 74 2 119662 5.6516581502462877e+03 1.3937930310806654e+04 4.4260971491363600e-06 5.9550360105747377e+03 5.6757094225912597e+03 9.3650889050929472e+03 -999 3.30445754e-01 1.269528706e-01 -1.41974751e-01
 75 2 119662 5.5494117947686564e+03 1.3017570837378040e+04 5.4447867824790705e-06 5.3749987609760838e+03 5.4669659287391078e+03 7.3813927336532743e+03 -999 3.18746598e-01 1.199754256e-01 -1.37784607e-01
 76 2 119662 5.5808926138130046e+03 1.1113956679963403e+04 7.2156693996182229e-06 4.7044567070021094e+03 5.3520703222792490e+03 5.8482999086863629e+03 -999 3.09192567e-01 1.133209516e-01 -1.33195899e-01
 77 2 119662 5.6529003776564168e+03 9.2645683620951531e+03 9.2897696570282552e-06 4.4762121729068331e+03 5.3282336513371820e+03 5.3538999605602012e+03 -999 3.03949828e-01 1.073534172e-01 -1.29298289e-01
 78 2 119662 5.5271340643999793e+03 7.9616360252508130e+03 1.2342261965058413e-05 4.9293941939817878e+03 5.2107914181750748e+03 4.9001160720478520e+03 -999 3.04196215e-01 1.022247334e-01 -1.26740645e-01
 79 2 119662 5.0475474292816371e+03 7.3086621337965471e+03 1.5426800560461345e-05 5.5048718580712211e+03 4.7870497248745778e+03 4.6959770585988008e+03 -999 3.10099384e-01 9.814460081e-02 -1.26022213e-01
 80 2 119662 4.8223528042252992e+03 7.3898533573578807e+03 1.9189070165834232e-05 6.0370493854880160e+03 4.5533794313529397e+03 4.9373675169715880e+03 -999 3.20482144e-01 9.487667478e-02 -1.27012575e-01
 81 2 119662 4.9502186380991416e+03 8.6414737791540647e+03 4.3172967785341781e-05 6.4215103971776898e+03 4.7647438583206585e+03 5.9007829867121363e+03 -999 3.39742907e-01 9.138124903e-02 -1.30689562e-01
 82 2 119662 5.1362884860827480e+03 9.7689383459802284e+03 5.5686629636207276e-05 6.3052788803609847e+03 5.0984158854941033e+03 7.6416689602285023e+03 -999 3.60345003e-01 8.863667914e-02 -1.35626178e-01
 83 2 119662 5.0285274705518368e+03 9.7057360237452904e+03 5.2155952744709784e-05 5.9885878521455097e+03 5.0184899271975337e+03 8.8864973656646853e+03 -999 3.76696002e-01 8.686315099e-02 -1.40186811e-01
 84 2 119662 4.7395834854536288e+03 9.1409115448633547e+03 5.3101229107251195e-05 5.7479230744050928e+03 4.7958381025959607e+03 7.9501558217104011e+03 -999 3.87199333e-01 8.578509604e-02 -1.43427122e-01
 85 2 119662 4.4470383854643414e+03 8.3779039965248812e+03 4.5424674975019085e-05 5.5117601844867486e+03 4.5568526954909539e+03 6.6410573074131653e+03 -999 3.96803974e-01 8.478695479e-02 -1.46565281e-01
 86 2 119662 4.2603469876006347e+03 7.5287673703621531e+03 6.0102866098079141e-05 5.2907598887286731e+03 4.3676986981577775e+03 6.9112950964442143e+03 -999 4.10843668e-01 8.325838289e-02 -1.51354300e-01
 87 2 119662 4.0034063111350415e+03 6.8340831520425709e+03 6.3515667804556775e-05 5.2039378986862866e+03 4.0817204319475300e+03 7.8595357547682097e+03 -999 4.23160585e-01 8.181125994e-02 -1.55877550e-01
 88 2 119662 3.6978995304726914e+03 6.3193608054713486e+03 6.3670773098995403e-05 4.9814528987081630e+03 3.6994519701705267e+03 9.5594449760008429e+03 -999 4.34270222e-01 8.042528208e-02 -1.60182781e-01
 89 2 119662 3.5719081483428249e+03 5.9890632458811770e+03 6.3492531441028223e-05 4.7042056978388855e+03 3.4877279745010715e+03 1.0667798945668956e+04 -999 4.44792859e-01 7.909957647e-02 -1.64391107e-01
 90 2 119662 3.4791075506578190e+03 5.4156757577723665e+03 6.5797857627291132e-05 4.4589322658115098e+03 3.3317930719892965e+03 1.1111349060344775e+04 -999 4.55292652e-01 7.788153099e-02 -1.68642489e-01
 91 2 119662 3.2555474082362671e+03 4.6001800131266809e+03 8.4805593959077396e-05 3.8666430331569754e+03 3.0510604877035444e+03 1.1750205151756412e+04 -999 4.69823108e-01 7.647064148e-02 -1.74437776e-01
 92 2 119662 3.0980474735212224e+03 3.9367893198654210e+03 8.8014168360078199e-05 3.6227861138262087e+03 2.8800387773590555e+03 1.2208608076432991e+04 -999 4.85944078e-01 7.535755188e-02 -1.80667469e-01
 93 2 119662 2.8925628644959515e+03 3.5863422185375498e+03 9.5301039901209006e-05 3.3838062736746847e+03 2.7060958230154029e+03 1.1324039075216675e+04 -999 5.03489701e-01 7.452600794e-02 -1.87119144e-01
 94 2 119662 2.7704500333185547e+03 3.7494809518988745e+03 3.0032032703129654e-04 3.4579689974169733e+03 2.6320992516569122e+03 1.1153535370799500e+04 -999 5.22272302e-01 7.389570570e-02 -1.93571797e-01
 95 2 119662 2.7045096518014957e+03 4.2587197184779434e+03 4.2975729265958185e-01 3.5253592653488804e+03 2.5948280981402577e+03 1.2242919009559002e+04 -999 5.41158210e-01 7.340654241e-02 -1.99502389e-01
 96 2 119662 2.5390693979928283e+03 4.6737520795213741e+03 1.6699460147664207e-02 3.5175550912652352e+03 2.4988898470349272e+03 1.3631624877574552e+04 -999 5.61199412e-01 7.293069116e-02 -2.05115332e-01
 97 2 119662 2.4725187544599330e+03 4.6633397215829773e+03 6.7084291976020382e-04 3.4386505069996365e+03 2.4524058843997909e+03 1.4209331862154515e+04 -999 5.81875382e-01 7.254144692e-02 -2.10159727e-01
 98 2 119662 2.4070584441453243e+03 4.2427476418358074e+03 1.7906481847630232e-04 3.2747616753533603e+03 2.4180419386851422e+03 1.3500814075462109e+04 -999 6.02821361e-01 7.225772610e-02 -2.14466867e-01
 99 2 119662 2.3324737516795331e+03 3.7546395940124053e+03 2.5742113138422731e-04 3.0462420586049466e+03 2.3582045349515329e+03 1.2598011312681467e+04 -999 6.24150644e-01 7.209516807e-02 -2.18035428e-01
 100 2 119662 2.2811190683091640e+03 3.3199120958240082e+03 1.9690606015339250e-04 2.7712059290511847e+03 2.2977630520952334e+03 1.1884834154848060e+04 -999 6.45780636e-01 7.210096360e-02 -2.20869960e-01
 101 2 119662 2.2140806336478513e+03 2.8985332996505790e+03 7.0327077271088568e-05 2.3403972832849440e+03 2.1903931089586526e+03 1.0885500738715891e+04 -999 6.73056717e-01 7.243296208e-02 -2.23317876e-01
 102 2 119662 2.1695320311336691e+03 2.5692585147404388e+03 5.8524277342729576e-05 1.9889399478387368e+03 2.1226127010339578e+03 1.0026218932584145e+04 -999 7.01331814e-01 7.323857939e-02 -2.25060927e-01
 103 2 119662 2.1168231049225242e+03 2.3163994753849765e+03 5.3170521381578191e-05 1.7132655561204222e+03 2.0609769722024284e+03 9.2986031492136208e+03 -999 7.29996116e-01 7.451056526e-02 -2.26082033e-01
 104 2 119662 2.0234167979423923e+03 2.0666842578730993e+03 4.9321772636023179e-05 1.4776527945721755e+03 1.9696860355825802e+03 8.5880797754947343e+03 -999 7.58621620e-01 7.622635207e-02 -2.26381625e-01
 105 2 119662 1.9175172595340273e+03 1.8720298738594972e+03 4.7454907526992530e-05 1.2832302114123227e+03 1.8694485439253367e+03 7.9413337252853698e+03 -999 7.86496237e-01 7.832016994e-02 -2.25938193e-01
 106 2 119662 1.7134110359789847e+03 1.6346336152808981e+03 4.3870743956269153e-05 1.0001881554374029e+03 1.6659468927975422e+03 7.3173046516506756e+03 -999 8.22351976e-01 8.158221983e-02 -2.23733861e-01
 107 2 119662 1.5602233786330535e+03 1.4975579317805600e+03 4.3483533740178536e-05 8.4255282628326506e+02 1.5109797772808299e+03 7.2466319389732889e+03 -999 8.54607505e-01 8.497771406e-02 -2.20443906e-01
 108 2 119662 1.4377566005827812e+03 1.4197524881409690e+03 4.6405382632560348e-05 7.0686191740349443e+02 1.3843376170295699e+03 7.5303910853254083e+03 -999 8.82622908e-01 8.803396482e-02 -2.16378654e-01
 109 2 119662 1.3150747697966972e+03 1.3273981200720493e+03 5.2951319709698313e-05 5.8893430345368597e+02 1.2568941279907522e+03 7.4686303076745062e+03 -999 9.06181342e-01 9.030476468e-02 -2.11919426e-01
 110 2 119662 1.2154590445600461e+03 1.2133356086404599e+03 6.3266036858894667e-05 4.9166364765187905e+02 1.1503177280456175e+03 7.0599550653806436e+03 -999 9.26349418e-01 9.161688552e-02 -2.07634150e-01
 111 2 119662 1.0834070606060257e+03 1.0392433280310511e+03 8.1724027085229464e-05 3.7206233611133780e+02 1.0015098345211786e+03 6.2240021325270727e+03 -999 9.53509235e-01 9.142115129e-02 -2.03206320e-01
 112 2 119662 9.7499191161895510e+02 9.0674105237394656e+02 9.5698431256322012e-05 3.1041860995964220e+02 8.8096468996629449e+02 5.4599825632197862e+03 -999 9.79154011e-01 8.927766022e-02 -2.00673681e-01
 113 2 119662 8.9385920581272069e+02 8.0095848918015952e+02 1.0355799195821064e-04 2.6972216071783703e+02 7.9083544675891744e+02 4.8293343040303853e+03 -999 1.00520290e+00 8.605468222e-02 -1.99904704e-01
 114 2 119662 8.2951525984973227e+02 7.3507542425129645e+02 1.0341891774398372e-04 2.4396504520293934e+02 7.2323899081308423e+02 4.3106377836047313e+03 -999 1.02812398e+00 8.308357182e-02 -2.00077497e-01
 115 2 119662 7.9078085184357781e+02 7.0186179747191181e+02 1.0007677480622395e-04 2.3089817722488866e+02 6.8425048909858242e+02 3.9533734865229812e+03 -999 1.04400911e+00 8.123435826e-02 -2.00304576e-01
 116 2 119662 7.5094389976483001e+02 6.8848090828091063e+02 9.0786107668033432e-05 2.1468553752899530e+02 6.4705910681053228e+02 3.8968664141451954e+03 -999 1.06136365e+00 7.986707554e-02 -2.00677199e-01
 117 2 119662 7.1696017850384692e+02 6.8030945044283851e+02 8.2775192674718553e-05 2.0507031454579419e+02 6.1674344283711787e+02 4.2670495707973114e+03 -999 1.07902943e+00 7.865867926e-02 -2.00738925e-01
 118 2 119662 6.9108958250821991e+02 6.9083275645998970e+02 7.8558312073884369e-05 1.9816319682460968e+02 5.9376214910175531e+02 5.2443461776393779e+03 -999 1.09121801e+00 7.789490601e-02 -2.00414307e-01
 119 2 119662 6.7175387302634624e+02 6.9770120730874442e+02 2.3053470711100775e-04 1.9273238232140073e+02 5.7820822282451809e+02 6.5704837170290193e+03 -999 1.10423077e+00 7.724511767e-02 -2.00005407e-01
 120 2 119662 6.5758483734235767e+02 7.0583862076996525e+02 4.6503946853511488e-02 1.8851748383939673e+02 5.6681810181816707e+02 8.0016536312553862e+03 -999 1.11446139e+00 7.681164026e-02 -1.99516147e-01
 121 2 119662 6.3970042666930112e+02 7.3903033631708092e+02 4.6164871103644936e-02 1.8139856325963297e+02 5.5488211480874008e+02 9.4995017436530197e+03 -999 1.12351750e+00 7.648276216e-02 -1.98882374e-01
 122 2 119662 6.1952841950556285e+02 7.4856157013417817e+02 3.9943291707089656e-02 1.7544606756308656e+02 5.4007855113765254e+02 1.0663631666634261e+04 -999 1.13312724e+00 7.622708555e-02 -1.98325126e-01
 123 2 119662 6.0206740955954581e+02 7.5970397991003745e+02 3.7547492211899833e-02 1.7096289714637393e+02 5.2674626454556187e+02 1.1230572586886530e+04 -999 1.14037896e+00 7.605963048e-02 -1.97886518e-01
 124 2 119662 5.8558461128813030e+02 7.4143068364219380e+02 3.4740604531897479e-02 1.6619469023739723e+02 5.1386720821490837e+02 1.1699659437815728e+04 -999 1.14874550e+00 7.592894272e-02 -1.97509120e-01
 125 2 119662 5.8228789279070656e+02 7.4043757299416973e+02 3.2924943731120912e-02 1.6678796198311343e+02 5.1214032595297226e+02 1.2172845483908904e+04 -999 1.15586707e+00 7.591638499e-02 -1.97382871e-01
 126 2 119662 5.7819648088319116e+02 7.1194170441790061e+02 2.7520160029572839e-02 1.6115534105111871e+02 5.4083091257032902e+02 1.1772671316250418e+04 -999 1.16303391e+00 7.578398700e-02 -1.96857216e-01
 127 2 119662 5.7033168236864060e+02 6.9738004095065355e+02 7.5863026326778771e+00 1.5633713749103961e+02 5.4637267311824257e+02 1.2127056432999909e+04 -999 1.16880766e+00 7.570089535e-02 -1.96512458e-01
 128 2 119662 5.5512304444757592e+02 6.7592953286372324e+02 7.8645685024868675e+00 1.5636125671272075e+02 5.6266501674465781e+02 1.2218171217769932e+04 -999 1.17536551e+00 7.564841546e-02 -1.96290157e-01
 129 2 119662 5.5022523874928550e+02 6.8501846349890923e+02 8.0802243267069649e+00 1.6264077033121401e+02 5.6720327025463610e+02 1.1905532398459482e+04 -999 1.18103563e+00 7.593028878e-02 -1.97030475e-01
 130 2 119662 5.7773911676038915e+02 7.2374547440152912e+02 6.3593494289921910e+00 2.0097476930085611e+02 6.0267287786850034e+02 1.3002769609960860e+04 -999 1.18871028e+00 7.632228435e-02 -1.97831911e-01
 131 2 119662 5.4173347987485863e+02 6.8107338247380301e+02 5.5093412210342851e+00 1.7653912725538248e+02 6.5099654045309012e+02 1.2772728485195006e+04 -999 1.19257174e+00 7.619336667e-02 -1.97453594e-01
 132 2 119662 5.0831283797174655e+02 6.4595668738536290e+02 4.4227272469744445e+00 1.5905392711352826e+02 6.9767845923254049e+02 1.3375552002274680e+04 -999 1.19690070e+00 7.613991427e-02 -1.97251552e-01
 133 2 119662 4.8586038084409580e+02 6.2061928936202571e+02 4.5408450822222859e+00 1.4999302375615284e+02 7.2453012903241597e+02 1.3000155929155386e+04 -999 1.20137612e+00 7.626966433e-02 -1.97485348e-01
 134 2 119662 4.6445069155848222e+02 6.1984125105834380e+02 3.6608240870664410e+00 1.5157968445141120e+02 7.3808541808821928e+02 1.4096517229992014e+04 -999 1.20633149e+00 7.659111690e-02 -1.98214089e-01
 135 2 119662 4.3795116405471862e+02 6.3359367232159275e+02 2.4954904604785111e+00 1.6364075074763926e+02 7.4992198228926600e+02 1.6522036303549819e+04 -999 1.20992940e+00 7.672461356e-02 -1.98494009e-01
 136 2 119662 4.1015616742078623e+02 6.4624934687724522e+02 2.0830059220821928e+00 1.5294164495010952e+02 9.3858891899189928e+02 1.5901877348318047e+04 -999 1.21393900e+00 7.694528758e-02 -1.98913310e-01
 137 2 119662 3.8117721072400622e+02 6.7740282955294538e+02 1.4358369023613426e+00 1.4888755741988433e+02 1.1213866779637312e+03 1.7747374963915758e+04 -999 1.21861273e+00 7.729150972e-02 -1.99577164e-01
 138 2 119662 3.6310268028068452e+02 6.9778995094434038e+02 9.8757324736626584e-01 1.4994193883444780e+02 1.2348785812506840e+03 1.7787638778345201e+04 -999 1.22226840e+00 7.765951189e-02 -2.00377743e-01
 139 2 119662 3.5779178539807339e+02 7.1755490315337158e+02 7.5082121840907579e-01 1.5158978443998748e+02 1.2931584766004503e+03 1.7138458188288791e+04 -999 1.22745521e+00 7.838899127e-02 -2.02080898e-01
 140 2 119662 3.4991437856722240e+02 7.3301733221859354e+02 4.9794599936234685e-01 1.7029092327481894e+02 1.3847474143038530e+03 1.8287672019954083e+04 -999 1.23267625e+00 7.917132840e-02 -2.03938278e-01
 141 2 119662 3.4378904978619369e+02 8.0196597445436976e+02 4.1636649844869622e-01 1.7242380144064606e+02 1.5099355216249457e+03 2.2367103147586138e+04 -999 1.23457193e+00 7.940334711e-02 -2.04472283e-01