TITLE = "005.02 ALPHA 2.50 GRIDLEVEL 4"

VARIABLES = "ITERATION"  "GRID_LEVEL"  "GRID_SIZE"  "CONTINUITY"  "MOMENTUMX"  "MOMENTUMY"  "MOMENTUMZ"  "ENERGY"  "TURB1"  "TURB2"  "CL_TOT"  "CD_TOT"  "CM_TOT"

DATASETAUXDATA ParticipantID   = "005"
DATASETAUXDATA SubmissionDate  = "10-31-2024"
DATASETAUXDATA Name            = "Jeffrey A. Housman"
DATASETAUXDATA Email           = "jeffrey.a.housman@nasa.gov"
DATASETAUXDATA Institution     = "NASA Ames Research Center"
DATASETAUXDATA SolverName      = "LAVA Curvilinear"
DATASETAUXDATA BasicAlgorithm  = "RANS"
DATASETAUXDATA TurbulenceModel = "SA-RC-comp-neg"
DATASETAUXDATA GridId          = "Multiblock"
DATASETAUXDATA Discretization  = "Finite difference"
DATASETAUXDATA Order           = "2"
DATASETAUXDATA DistanceCalc    = "Exact"
DATASETAUXDATA Notes           = " "

ZONE T = "005.02 - Alpha 2.50 - Grid Level 4"
AUXDATA Tstatic         = "271.0"
AUXDATA Deltat          = "-999"
AUXDATA GridFileName    = "ONERA-OAT15A_230mmChord_780mmSpan_upZ_2024_06_25-Structured_23mm_Level-4.x"
AUXDATA Misc            = " "
 0 4 430284 3.6728301951634156e+05 1.0462732735473101e+06 6.4511385161479112e-14 3.3808580962146621e+05 3.8068815194576979e+05 1.8130199834759352e+06 -999 1.06507821e-02 7.527906210e-01 -4.88356009e-03
 1 4 430284 5.3613499629043706e+05 7.9929623265915283e+05 5.5793660409361493e-14 2.6702827322588779e+05 5.2032406669641344e+05 1.1741633485504200e+06 -999 3.85402203e-02 7.025793110e-01 -1.79871319e-02
 2 4 430284 6.5834821258736402e+05 6.9199251501910959e+05 4.9244898627297050e-14 2.9631585192632640e+05 6.3070781675314030e+05 7.6331602018086123e+05 -999 7.09680630e-02 6.756951988e-01 -3.33486441e-02
 3 4 430284 7.7233766776164959e+05 6.2381915680799447e+05 4.4153707393499459e-14 3.5232959657669003e+05 7.3913013619485183e+05 4.9649906285766192e+05 -999 9.98493164e-02 6.602129632e-01 -4.68524877e-02
 4 4 430284 8.7531757693001267e+05 5.7389072712178808e+05 4.0134536028679227e-14 4.2254403390829213e+05 8.4587065749219118e+05 3.1722892916809063e+05 -999 1.26495688e-01 6.516020005e-01 -5.80786241e-02
 5 4 430284 9.7892342282653775e+05 5.7755405660708062e+05 3.6939732878835953e-14 4.9676465457568824e+05 9.6534236347152665e+05 2.0209917096017642e+05 -999 1.46318454e-01 6.455918319e-01 -6.63181798e-02
 6 4 430284 8.9706640015307372e+05 6.1963228442179353e+05 3.4485686338706385e-14 5.2595098475213151e+05 8.8727553401249077e+05 1.0135090530573351e+05 -999 1.59715012e-01 6.338029147e-01 -7.25866031e-02
 7 4 430284 9.2032768138676381e+05 6.3565340062869096e+05 3.2257216214796187e-14 5.4877686361372645e+05 9.0633183416272991e+05 8.0079573248896821e+04 -999 1.70933026e-01 6.188928363e-01 -7.82608423e-02
 8 4 430284 9.8140699432925822e+05 6.2964240437609935e+05 3.0614401549929444e-14 5.6097670935101504e+05 9.8776821835209115e+05 6.8554789622700016e+04 -999 1.79996936e-01 6.022680868e-01 -8.25169062e-02
 9 4 430284 1.1844052064814765e+06 6.8589789457659994e+05 2.9195694063381727e-14 6.1917168216137949e+05 1.2317494878919101e+06 6.1400232189006136e+04 -999 1.89348916e-01 5.818734345e-01 -8.64206986e-02
 10 4 430284 1.1104191590620077e+06 5.8100667248883669e+05 2.8399409959803766e-14 5.8890617944437603e+05 1.1495234673042553e+06 5.5305337339793303e+04 -999 1.94299338e-01 5.699338389e-01 -8.84136954e-02
 11 4 430284 1.0198610968370130e+06 5.6693291029704711e+05 2.7442795503571958e-14 5.7541407902325026e+05 1.0394519781009695e+06 4.9838575448205665e+04 -999 1.99948649e-01 5.553172496e-01 -9.07829592e-02
 12 4 430284 9.4887664635859767e+05 5.7231865474413277e+05 2.6680625171888627e-14 5.5289395884761261e+05 9.6064391671355569e+05 4.5509922451058919e+04 -999 2.04338120e-01 5.427833000e-01 -9.25960636e-02
 13 4 430284 1.0506609781103546e+06 5.8264149146668974e+05 2.6119838525273589e-14 5.7481800255344436e+05 1.0813469809790051e+06 4.2300342808702640e+04 -999 2.08581251e-01 5.291637093e-01 -9.43863944e-02
 14 4 430284 9.8078610503188148e+05 5.1343325325009669e+05 2.5696318394599841e-14 5.3929250157664658e+05 1.0056291614506057e+06 3.9457647957409499e+04 -999 2.10755728e-01 5.211568874e-01 -9.53672805e-02
 15 4 430284 1.1560802711724220e+06 6.5883079951536842e+05 2.5292284776844541e-14 5.8642856268260395e+05 1.2327027108066536e+06 3.7154736620797688e+04 -999 2.13183466e-01 5.116100073e-01 -9.65578786e-02
 16 4 430284 9.7590515433737938e+05 5.8229315240299003e+05 2.4849621343974557e-14 5.2777360757312330e+05 1.0350275950874977e+06 3.4042839937373668e+04 -999 2.14709890e-01 5.047274499e-01 -9.73539606e-02
 17 4 430284 8.6607936011066590e+05 4.8218911565871321e+05 2.4337875067940912e-14 4.9613689501892455e+05 8.8013337728856958e+05 3.1567179804321222e+04 -999 2.16550953e-01 4.957638802e-01 -9.82939540e-02
 18 4 430284 8.2361120195129968e+05 4.7288242820991849e+05 2.3917190404068227e-14 4.7488288574746309e+05 8.3277790724282118e+05 2.9481696171692893e+04 -999 2.17871025e-01 4.885252364e-01 -9.89184546e-02
 19 4 430284 9.5976103540646157e+05 5.1370782219138643e+05 2.3557535331589627e-14 4.9095090587227204e+05 1.0086693879219602e+06 2.7774161884949266e+04 -999 2.19123686e-01 4.809552796e-01 -9.94487908e-02
 20 4 430284 8.7916543137871602e+05 4.1779755283989635e+05 2.3362181200000315e-14 4.6446313619065803e+05 9.1189138870023272e+05 2.6216685341904933e+04 -999 2.19861764e-01 4.760222073e-01 -9.97202319e-02
 21 4 430284 8.0169851490373863e+05 4.2538768517555430e+05 2.3037389566994939e-14 4.4378171627118241e+05 8.2931937561155856e+05 2.4242308788078062e+04 -999 2.20573431e-01 4.704054980e-01 -9.99647973e-02
 22 4 430284 7.2025990415270580e+05 4.1177591189757717e+05 2.2682272888148673e-14 4.1391579658731143e+05 7.3715575324190839e+05 2.2636226081531011e+04 -999 2.21284668e-01 4.642554985e-01 -1.00202095e-01
 23 4 430284 7.4289717197181808e+05 4.1219622401482041e+05 2.2371373812275041e-14 4.0708773193719308e+05 7.6094848521958792e+05 2.1317790772328186e+04 -999 2.21978131e-01 4.575346564e-01 -1.00434386e-01
 24 4 430284 7.4447648807165620e+05 3.7226398242800363e+05 2.2211462231380545e-14 3.9837273753084568e+05 7.6152762358217081e+05 2.0156843350649971e+04 -999 2.22450297e-01 4.523963614e-01 -1.00599774e-01
 25 4 430284 8.0906675907431392e+05 4.1372437119474064e+05 2.2080127158331078e-14 3.9776539101665246e+05 8.5522031199572259e+05 1.9090839006308241e+04 -999 2.22836904e-01 4.478893959e-01 -1.00742260e-01
 26 4 430284 6.8179324871507811e+05 3.6680875272794848e+05 2.1842133386504151e-14 3.6647211527488899e+05 7.1811737079887174e+05 1.7725585365193041e+04 -999 2.23166339e-01 4.432721532e-01 -1.00866691e-01
 27 4 430284 6.0106333792508778e+05 3.4741803819259140e+05 2.1609662160861632e-14 3.4280082107197650e+05 6.1670065643546823e+05 1.6622510917855103e+04 -999 2.23505842e-01 4.383347803e-01 -1.00998432e-01
 28 4 430284 6.1213569130335201e+05 3.3743856226911856e+05 2.1421854445996945e-14 3.3245745361631329e+05 6.2398393168286351e+05 1.5699404499781704e+04 -999 2.23867040e-01 4.329357034e-01 -1.01141483e-01
 29 4 430284 6.2595925914810889e+05 3.1685215622034180e+05 2.1282317333297934e-14 3.2586961635897506e+05 6.4387218359409913e+05 1.4892127916927293e+04 -999 2.24134044e-01 4.288650370e-01 -1.01247857e-01
 30 4 430284 6.8978912659321143e+05 3.6457191754569195e+05 2.1160923071077648e-14 3.2841687800081843e+05 7.3318629500928021e+05 1.4161496108098214e+04 -999 2.24368981e-01 4.252252631e-01 -1.01340136e-01
 31 4 430284 5.7814805664514727e+05 3.1797338085603196e+05 2.0932350064610616e-14 3.0032863489124866e+05 6.1488929339561937e+05 1.3168185506011023e+04 -999 2.24563684e-01 4.216521752e-01 -1.01413016e-01
 32 4 430284 4.9197133444125223e+05 2.8833569210676709e+05 2.0675008860363746e-14 2.7580779738835932e+05 5.0904166487162793e+05 1.2340843745938724e+04 -999 2.24786178e-01 4.175466931e-01 -1.01495604e-01
 33 4 430284 4.7732607425161154e+05 2.7489788102535187e+05 2.0444693724316293e-14 2.6087643600850509e+05 4.8497876337774610e+05 1.1640860683119212e+04 -999 2.25013548e-01 4.133207164e-01 -1.01579860e-01
 34 4 430284 5.3494603695135610e+05 2.8370180563467741e+05 2.0281303855725117e-14 2.6128017264460516e+05 5.5575449568390078e+05 1.1035979142811686e+04 -999 2.25226295e-01 4.093236567e-01 -1.01658925e-01
 35 4 430284 5.3011207309489255e+05 2.6154847255982284e+05 2.0190105181130331e-14 2.5563181667448801e+05 5.5456434812641668e+05 1.0485777915591883e+04 -999 2.25372322e-01 4.065445261e-01 -1.01713443e-01
 36 4 430284 4.5905006731794821e+05 2.5237175904841122e+05 1.9978159381923196e-14 2.3586714202799351e+05 4.8461533711260685e+05 9.7784108301547640e+03 -999 2.25514008e-01 4.034169079e-01 -1.01765045e-01
 37 4 430284 3.8807113166828116e+05 2.3066325149468373e+05 1.9735421812871263e-14 2.1427891165919902e+05 4.0344269966446457e+05 9.1834381055928352e+03 -999 2.25672611e-01 3.999711615e-01 -1.01823402e-01
 38 4 430284 3.6934910315114644e+05 2.1437580402942866e+05 1.9496198415499169e-14 1.9986928979821125e+05 3.7375845398156921e+05 8.6547059316650393e+03 -999 2.25849006e-01 3.961920509e-01 -1.01888874e-01
 39 4 430284 4.0014639058659610e+05 2.1412729778260886e+05 1.9331442584972162e-14 1.9650856036740838e+05 4.1261649150485924e+05 8.1920191854763780e+03 -999 2.26003398e-01 3.929250406e-01 -1.01946591e-01
 40 4 430284 4.2824736036683584e+05 2.3295876763132840e+05 1.9222953290173148e-14 1.9579779320087386e+05 4.5398436049110279e+05 7.7800695256948929e+03 -999 2.26125883e-01 3.903547293e-01 -1.01992645e-01
 41 4 430284 3.6304159146075853e+05 2.0383179146388412e+05 1.9008954422431949e-14 1.7924369844745903e+05 3.8767468316716683e+05 7.2607367833152566e+03 -999 2.26236032e-01 3.877388796e-01 -1.02032995e-01
 42 4 430284 2.9911601621010696e+05 1.8455802659751152e+05 1.8747700221108879e-14 1.6218788259449127e+05 3.1379608738146489e+05 6.8172470516500462e+03 -999 2.26366297e-01 3.847186069e-01 -1.02081138e-01
 43 4 430284 2.7436044444272190e+05 1.6863484084002124e+05 1.8472740793106253e-14 1.4934968195862140e+05 2.7765570787614136e+05 6.4222594130862608e+03 -999 2.26509014e-01 3.814852928e-01 -1.02134309e-01
 44 4 430284 2.9584769133724109e+05 1.7016595475843496e+05 1.8249118817456642e-14 1.4496426570240574e+05 3.0345342339068739e+05 6.0674203765119992e+03 -999 2.26641048e-01 3.785525583e-01 -1.02183818e-01
 45 4 430284 3.2778826463616145e+05 1.8220136792016143e+05 1.8079208695487931e-14 1.4554245885256835e+05 3.4442161190125800e+05 5.7513730426403436e+03 -999 2.26759239e-01 3.759624421e-01 -1.02228359e-01
 46 4 430284 2.7698336455579294e+05 1.6365714592692401e+05 1.7870580808645565e-14 1.3299410187365449e+05 2.9681866018961277e+05 5.3398245499473169e+03 -999 2.26852962e-01 3.736696428e-01 -1.02262879e-01
 47 4 430284 2.2165074362357441e+05 1.4403339765072559e+05 1.7608085464859646e-14 1.1852538114592202e+05 2.3549173941299075e+05 4.9870111446465553e+03 -999 2.26968044e-01 3.709378001e-01 -1.02305378e-01
 48 4 430284 1.9461568097923661e+05 1.3004875598730065e+05 1.7324757324211379e-14 1.0680602380488465e+05 1.9813265792661341e+05 4.6817331706839695e+03 -999 2.27098010e-01 3.679258644e-01 -1.02353740e-01
 49 4 430284 2.0399116480983965e+05 1.2881320077460264e+05 1.7089556233280985e-14 1.0132173872380928e+05 2.0889963391477795e+05 4.3820086064533680e+03 -999 2.27220327e-01 3.651554152e-01 -1.02399538e-01
 50 4 430284 2.2195427224091382e+05 1.3770980651729985e+05 1.6910879839070249e-14 9.9443156914437903e+04 2.3438106765213105e+05 4.1264306599058555e+03 -999 2.27326125e-01 3.628008641e-01 -1.02439373e-01
 51 4 430284 1.8773094942272778e+05 1.2034846808004362e+05 1.6712508843538194e-14 9.0639024303094760e+04 2.0182248300216920e+05 3.7862054553101093e+03 -999 2.27417159e-01 3.605781273e-01 -1.02473171e-01
 52 4 430284 1.5069314649205888e+05 1.0638728531520905e+05 1.6466722299062147e-14 8.1029905878231162e+04 1.6202366061236270e+05 3.4909310825060861e+03 -999 2.27525451e-01 3.579875530e-01 -1.02513791e-01
 53 4 430284 1.2847301436710503e+05 9.6275975057913034e+04 1.6189579385904395e-14 7.2289479207445576e+04 1.3373609351033726e+05 3.2269264287699202e+03 -999 2.27651490e-01 3.550398935e-01 -1.02561474e-01
 54 4 430284 1.2804218758392452e+05 9.2749853622457274e+04 1.5938147891695391e-14 6.7084846606122956e+04 1.3197583926948067e+05 2.9943318820195177e+03 -999 2.27775339e-01 3.522104108e-01 -1.02608781e-01
 55 4 430284 1.3301098553773228e+05 9.3425903680915028e+04 1.5741136508023872e-14 6.4208193112917827e+04 1.3947360918888266e+05 2.7956100717043719e+03 -999 2.27885283e-01 3.497450004e-01 -1.02651389e-01
 56 4 430284 1.1430934182731085e+05 8.5639640196880922e+04 1.5551072408521392e-14 5.9231503079539754e+04 1.2213678046307142e+05 2.5204287858172479e+03 -999 2.27975133e-01 3.475283425e-01 -1.02686916e-01
 57 4 430284 9.2618448552031696e+04 7.8145238619080585e+04 1.5317056680650480e-14 5.3493530974912050e+04 9.9832540402991217e+04 2.2794431425163493e+03 -999 2.28084745e-01 3.448659971e-01 -1.02730843e-01
 58 4 430284 7.6642096007273198e+04 7.1544494982745135e+04 1.5024659340055005e-14 4.7775231258534135e+04 8.1099801956696232e+04 2.0718115509713657e+03 -999 2.28215958e-01 3.417406115e-01 -1.02784094e-01
 59 4 430284 7.1433578381143278e+04 6.7658838361915099e+04 1.4747417279679923e-14 4.3700245376455481e+04 7.4288655867716690e+04 1.8977643406926059e+03 -999 2.28348162e-01 3.386566639e-01 -1.02838765e-01
 60 4 430284 6.9468077218387916e+04 6.5296807133692768e+04 1.4525399190737070e-14 4.0889471076718757e+04 7.2249423446328903e+04 1.7498368013402901e+03 -999 2.28469626e-01 3.358649733e-01 -1.02890611e-01
 61 4 430284 6.0606740109824132e+04 6.1787847363810448e+04 1.4315305987250050e-14 3.7944181922267155e+04 6.3802959464036852e+04 1.5601386249310922e+03 -999 2.28561858e-01 3.334160680e-01 -1.02931147e-01
 62 4 430284 5.0188958873984404e+04 5.7997137071721168e+04 1.4046088701913219e-14 3.4486246024553227e+04 5.3001516969060547e+04 1.4000096131293558e+03 -999 2.28674207e-01 3.304290728e-01 -1.02980900e-01
 63 4 430284 4.1564981577835068e+04 5.4137390156881906e+04 1.3701870592490363e-14 3.0782384895053921e+04 4.3184440818023431e+04 1.2669899740667590e+03 -999 2.28809032e-01 3.268399169e-01 -1.03040891e-01
 64 4 430284 3.7108916640418982e+04 5.1052895124302151e+04 1.3373484614273731e-14 2.7743592087374938e+04 3.7941240728402299e+04 1.1585476870290686e+03 -999 2.28942882e-01 3.232502446e-01 -1.03101280e-01
 65 4 430284 3.4238198920038660e+04 4.8638302760539933e+04 1.3089623495887590e-14 2.5395985173889687e+04 3.4736487275233310e+04 1.0706923321786683e+03 -999 2.29063396e-01 3.199504209e-01 -1.03157675e-01
 66 4 430284 3.0399705954896206e+04 4.6331840506329027e+04 1.2841611497517201e-14 2.3459772863452574e+04 3.0897642453310542e+04 9.6466511378865664e+02 -999 2.29133262e-01 3.169208763e-01 -1.03187350e-01
 67 4 430284 2.6040102006903999e+04 4.3691404853824955e+04 1.2522639230090394e-14 2.1206150858557845e+04 2.6352977407591974e+04 8.8161529868443233e+02 -999 2.29211523e-01 3.131207019e-01 -1.03218218e-01
 68 4 430284 2.2261926244905404e+04 4.0844188245094898e+04 1.2128723884689136e-14 1.8793847604737064e+04 2.2337199836783919e+04 8.2835110489407646e+02 -999 2.29295444e-01 3.084624321e-01 -1.03246159e-01
 69 4 430284 1.9830183525672630e+04 3.8367182837378416e+04 1.1766336973156501e-14 1.6654776061648638e+04 1.9947448355818164e+04 8.1046802793410734e+02 -999 2.29372374e-01 3.037251671e-01 -1.03259114e-01
 70 4 430284 1.8255293932278895e+04 3.6343624098719585e+04 1.1453939005296793e-14 1.5083722892844602e+04 1.8581529756785538e+04 8.1177139831031275e+02 -999 2.29437594e-01 2.992256252e-01 -1.03261017e-01
 71 4 430284 1.6419785059705613e+04 3.4307181294403192e+04 1.1156713227230235e-14 1.3719276341091279e+04 1.7082536450830154e+04 8.4115802731689041e+02 -999 2.29466475e-01 2.942222763e-01 -1.03197313e-01
 72 4 430284 1.4771338749598075e+04 3.2013995348407108e+04 1.0774352604252516e-14 1.2457745443177690e+04 1.5839227096551424e+04 9.1339404057373304e+02 -999 2.29532528e-01 2.876072006e-01 -1.03104099e-01
 73 4 430284 1.3979380225083885e+04 2.9741063368197814e+04 1.0325463115675837e-14 1.1677634075998822e+04 1.5465156151550456e+04 1.0971953255695598e+03 -999 2.29683439e-01 2.793917339e-01 -1.02991857e-01
 74 4 430284 1.4085493923688013e+04 2.7960089318303093e+04 1.0224630609185939e-14 1.1534573899232764e+04 1.5893754429567343e+04 1.4180418323222505e+03 -999 2.29951857e-01 2.709597507e-01 -1.02908761e-01
 75 4 430284 1.4512736518917622e+04 2.6601884617797510e+04 1.0979628203591950e-14 1.1659543878085695e+04 1.6550219745977774e+04 1.9205032530819049e+03 -999 2.30354059e-01 2.625857469e-01 -1.02888113e-01
 76 4 430284 1.4203765058367677e+04 2.4564586816981271e+04 1.0481710345001392e-14 1.0825652955425383e+04 1.6439529875921919e+04 3.3898888244703753e+03 -999 2.31237297e-01 2.508670421e-01 -1.03026441e-01
 77 4 430284 1.4327430739444357e+04 2.2811488419846675e+04 1.0115665751718121e-14 1.0247573859730368e+04 1.6595759473818674e+04 9.2266728331120830e+03 -999 2.32888525e-01 2.343611722e-01 -1.03530284e-01
 78 4 430284 1.4589435216789318e+04 2.2405950341092022e+04 9.8183414364591630e-15 1.0073171721716979e+04 1.6680722294649586e+04 2.2180305060327526e+04 -999 2.35167010e-01 2.161583518e-01 -1.04662863e-01
 79 4 430284 1.4787390052696412e+04 2.2889987541054386e+04 9.5394216993305391e-15 1.0129043679735179e+04 1.6594640964877592e+04 5.3313435872588401e+04 -999 2.37531548e-01 1.981246046e-01 -1.06504785e-01
 80 4 430284 1.5060866952148079e+04 2.4674435035522310e+04 9.1468291315210064e-15 1.0273258394790368e+04 1.6918980735106146e+04 1.0126662484447483e+05 -999 2.39497498e-01 1.797870357e-01 -1.09085008e-01
 81 4 430284 1.2912007954388846e+04 1.8858592732176025e+04 1.6866726928876692e-13 9.3420547327237891e+03 1.3847222528931734e+04 1.8253230320269632e+05 -999 2.41239635e-01 1.536832556e-01 -1.13891122e-01
 82 4 430284 1.1272248950575282e+04 1.7626601772992581e+04 3.0687724375338317e-13 8.6276196826623400e+03 1.2096887280396242e+04 1.7724314409628999e+05 -999 2.40547499e-01 1.332130003e-01 -1.18123425e-01
 83 4 430284 1.0686416270928259e+04 2.8783700810535247e+04 3.3256375113127924e-13 8.1816680711378676e+03 1.3108534673959211e+04 1.2373250192691197e+05 -999 2.39592579e-01 1.282015058e-01 -1.18958638e-01
 84 4 430284 1.0499981477096117e+04 3.2493584720445069e+04 3.3897419378880844e-13 7.8200497346288676e+03 1.2482585804496312e+04 6.6641829234698918e+04 -999 2.39221769e-01 1.267008121e-01 -1.19163637e-01
 85 4 430284 1.0359447320068595e+04 3.4786490376107948e+04 3.4363762601113720e-13 7.6553839316684125e+03 1.1919600311737628e+04 3.6342809958848135e+04 -999 2.38895291e-01 1.255394483e-01 -1.19303314e-01
 86 4 430284 9.0288148745045128e+03 1.6279594611015473e+04 2.7363720526439450e-13 6.5071554209026099e+03 9.2637221129537375e+03 1.4486682933890325e+05 -999 2.35440329e-01 1.145868230e-01 -1.20458705e-01
 87 4 430284 8.1548783836584671e+03 1.5164556517727357e+04 2.3019878126475831e-13 5.6488057325152449e+03 8.3190467384783478e+03 7.0228668037057025e+04 -999 2.32804401e-01 1.087983501e-01 -1.20571550e-01
 88 4 430284 7.6351014562429327e+03 1.4169584606056322e+04 1.9995964556454200e-13 5.1110426360168367e+03 7.7346870542662991e+03 4.2320537027662052e+04 -999 2.31353758e-01 1.049648108e-01 -1.20514308e-01
 89 4 430284 7.3989667050258768e+03 1.3396478447059591e+04 1.8127900902587482e-13 4.8534212312073105e+03 7.4514152972568745e+03 2.1504314607653454e+04 -999 2.30842039e-01 1.026609883e-01 -1.20480667e-01
 90 4 430284 7.2945552133695610e+03 1.2780152444845198e+04 1.6831678394883987e-13 4.7285390412384622e+03 7.3805866957826593e+03 1.5666631390752073e+04 -999 2.30719352e-01 1.010540808e-01 -1.20481495e-01
 91 4 430284 6.1002835951098496e+03 1.0193347261507082e+04 1.3858313614690053e-13 4.0998551015781923e+03 6.0146416082431033e+03 4.3719468646489484e+04 -999 2.35031444e-01 9.591495789e-02 -1.21973103e-01
 92 4 430284 5.7386068757518533e+03 8.5703815854987115e+03 1.0574779977383712e-13 4.1521894543274693e+03 5.5346480517474565e+03 7.5097569500066442e+04 -999 2.47554640e-01 8.754633943e-02 -1.26102685e-01
 93 4 430284 5.9758713820195162e+03 9.7127508994670934e+03 9.9838509931123517e-14 3.9840486181287015e+03 5.8054512328770234e+03 4.5824863387099227e+04 -999 2.62791957e-01 8.253164728e-02 -1.31527129e-01
 94 4 430284 6.3021020115571064e+03 1.0661815737216795e+04 9.5963196259367464e-14 3.7405641496433809e+03 6.3504283498930272e+03 4.5922145319150681e+04 -999 2.77959830e-01 7.889350121e-02 -1.37343892e-01
 95 4 430284 6.1278373384003480e+03 1.0389046257458922e+04 9.0686530477337496e-14 3.3417213175456586e+03 6.5560255436941361e+03 2.8827286045342989e+04 -999 2.89364424e-01 7.679766277e-02 -1.41933675e-01
 96 4 430284 3.7529090526078708e+03 5.5134395791765828e+03 5.9934600229675581e-13 2.6418653847921810e+03 3.9239359489988624e+03 4.9221293117497800e+04 -999 3.15785760e-01 7.308945387e-02 -1.52494803e-01
 97 4 430284 3.1930931397843619e+03 3.9091602064465424e+03 1.2594476063454714e-12 2.1742533000401318e+03 3.2509466588011182e+03 5.3213062980670744e+04 -999 3.49352484e-01 6.834996419e-02 -1.65193523e-01
 98 4 430284 3.0072187993228022e+03 3.8297399815018516e+03 1.8427426859682899e-12 1.8073449903207004e+03 2.8861266436252322e+03 8.6056162959578651e+04 -999 3.84854462e-01 6.393810502e-02 -1.76721841e-01
 99 4 430284 3.0981136765717433e+03 4.0913598636589004e+03 2.1652351791129236e-12 1.6268638703933673e+03 2.9549660939614619e+03 1.3450400794320580e+05 -999 4.23748081e-01 6.006663549e-02 -1.86841370e-01
 100 4 430284 3.4649436605378392e+03 4.5195472282385144e+03 2.1528651663779002e-12 1.4912321099398064e+03 3.3547013493710670e+03 1.7378311341680688e+05 -999 4.65680319e-01 5.682145431e-02 -1.95063406e-01
 101 4 430284 3.0460185759606875e+03 3.5069161109192214e+03 1.7814714955853106e-12 1.2780074074324573e+03 2.9884705196188906e+03 1.1283495441850861e+05 -999 5.03323142e-01 5.466468445e-02 -2.00468143e-01
 102 4 430284 3.0403100856261308e+03 3.0688877127218875e+03 1.5421353720263866e-12 1.0084954066315995e+03 2.9903246115220441e+03 4.0270328607028452e+04 -999 5.37365391e-01 5.341905237e-02 -2.03689522e-01
 103 4 430284 3.0275698530822106e+03 2.7769386986324316e+03 1.3508247921677253e-12 8.5204117175082479e+02 2.9810308676646059e+03 2.1205349383081622e+04 -999 5.61266779e-01 5.302300051e-02 -2.05032559e-01
 104 4 430284 2.9897671273976152e+03 2.6585794663757270e+03 1.2658038804855160e-12 7.8672435815174583e+02 2.9448541516590094e+03 1.6306856252736648e+04 -999 5.73782826e-01 5.297941038e-02 -2.05390064e-01
 105 4 430284 3.0257818645445259e+03 2.5075618314844269e+03 1.1668494576190763e-12 7.1551222823876549e+02 2.9957790427947448e+03 1.5283785993352381e+04 -999 5.91105893e-01 5.305746196e-02 -2.05650486e-01
 106 4 430284 2.7531581413103395e+03 2.3546888268392504e+03 1.0742518116853152e-12 7.4509993962516546e+02 2.6957544953993211e+03 1.3350333040340769e+04 -999 6.10301333e-01 5.363936738e-02 -2.05916982e-01
 107 4 430284 2.6027416269633163e+03 2.2152663065241363e+03 1.0801072591895787e-12 7.9944074200096861e+02 2.5514973179987073e+03 1.2420472166061889e+04 -999 6.33866399e-01 5.435391830e-02 -2.05582978e-01
 108 4 430284 2.5119453452332918e+03 2.0591785347937480e+03 1.1385169801642678e-12 7.4370310010155015e+02 2.4741834373585307e+03 1.1877077416986032e+04 -999 6.62906725e-01 5.529140366e-02 -2.04285705e-01
 109 4 430284 2.4094656573303555e+03 1.9766376191071840e+03 1.1512134154418247e-12 7.0702522823794970e+02 2.3706552395882331e+03 8.9241511095782116e+03 -999 6.73666431e-01 5.565115866e-02 -2.03269484e-01
 110 4 430284 2.3149696484997994e+03 1.8974191940391547e+03 1.1783377148132113e-12 6.6064120284670435e+02 2.2755685637638030e+03 8.6935922795368260e+03 -999 6.86839484e-01 5.613486033e-02 -2.01914952e-01
 111 4 430284 2.1402894711189792e+03 1.8029794361304819e+03 1.1530008219565807e-12 6.3337294477405635e+02 2.0886300464723759e+03 8.4531989256865963e+03 -999 7.00342961e-01 5.663980170e-02 -2.00220830e-01
 112 4 430284 1.9951080427631209e+03 1.7127336797806627e+03 1.2992276634818123e-12 5.9776238323932546e+02 1.9371457516611897e+03 8.3460483942211213e+03 -999 7.15173387e-01 5.720709036e-02 -1.98151604e-01
 113 4 430284 1.8628199294861347e+03 1.6270862695604158e+03 1.4586101908828596e-12 5.5847100641550765e+02 1.8033435399037674e+03 8.2840968759691859e+03 -999 7.31482022e-01 5.781755022e-02 -1.95571521e-01
 114 4 430284 1.7653482188514538e+03 1.5682004262241110e+03 1.5118431630133558e-12 5.2165472844119415e+02 1.7029046777515928e+03 7.8962451217174439e+03 -999 7.44941126e-01 5.827648112e-02 -1.93244150e-01
 115 4 430284 1.6880181541347213e+03 1.5147777441057685e+03 1.5051854342227150e-12 5.0003300606497862e+02 1.6239585070104376e+03 7.1986645194211624e+03 -999 7.53573535e-01 5.850476957e-02 -1.91595721e-01
 116 4 430284 1.6098305019925281e+03 1.4632416805436894e+03 1.3027938031285929e-12 4.6956754246244566e+02 1.5394870334129698e+03 7.0862747164793464e+03 -999 7.62040711e-01 5.867139797e-02 -1.89997127e-01
 117 4 430284 1.5303479781701005e+03 1.3994568019097937e+03 1.2263434350140571e-12 4.3852862556502379e+02 1.4501980062648804e+03 7.4055166132411659e+03 -999 7.73391107e-01 5.877629684e-02 -1.87955197e-01
 118 4 430284 1.4532446663775268e+03 1.3350476342099114e+03 1.2622576251328121e-12 4.0581352416515182e+02 1.3646028787242547e+03 7.5011910206366638e+03 -999 7.85728396e-01 5.866241857e-02 -1.85884729e-01
 119 4 430284 1.3957441647718249e+03 1.2969432574694370e+03 1.2983685154535203e-12 3.8409208964818299e+02 1.2997756477454727e+03 7.2070380592142592e+03 -999 7.93809869e-01 5.837579126e-02 -1.84647913e-01
 120 4 430284 1.3557046184185003e+03 1.2707629142379126e+03 1.3275659934681147e-12 3.6554128570448268e+02 1.2538818641980108e+03 7.1479216009568645e+03 -999 8.00902946e-01 5.799128176e-02 -1.83645309e-01
 121 4 430284 1.3059314145521953e+03 1.2489154714721205e+03 1.1372577342318070e-12 3.4936598928885223e+02 1.2022829612604219e+03 7.2436236825313972e+03 -999 8.06845567e-01 5.755665931e-02 -1.82918293e-01
 122 4 430284 1.2585890960357767e+03 1.2151118775441084e+03 1.0997658658148785e-12 3.3611642935610257e+02 1.1504340916637243e+03 7.4727116575822265e+03 -999 8.14456154e-01 5.690772520e-02 -1.82075985e-01
 123 4 430284 1.2207803260610779e+03 1.1746972087819204e+03 1.2076044512181840e-12 3.2813040827823943e+02 1.1056398451405653e+03 7.5639856329747308e+03 -999 8.22820244e-01 5.606260909e-02 -1.81288060e-01
 124 4 430284 1.2044574812561993e+03 1.1561457266017649e+03 1.3078479521412575e-12 3.2526745020949926e+02 1.0843440716323437e+03 7.6419719684504871e+03 -999 8.30516255e-01 5.515187270e-02 -1.80664344e-01
 125 4 430284 1.1843269639275056e+03 1.1349349585158948e+03 1.3620061415442395e-12 3.2434568098624828e+02 1.0621492620191943e+03 7.7402143863149231e+03 -999 8.36286364e-01 5.439564338e-02 -1.80275116e-01
 126 4 430284 1.1421078232285954e+03 1.1127517946819544e+03 1.1379404783874199e-12 3.2437045976954397e+02 1.0166663678876309e+03 8.0448034853987147e+03 -999 8.41846042e-01 5.359563085e-02 -1.79900003e-01
 127 4 430284 1.1198011400409371e+03 1.0874150933260362e+03 1.1133950135194420e-12 3.2680289878577992e+02 9.9127056530180971e+02 8.2697767256423285e+03 -999 8.49209275e-01 5.252679352e-02 -1.79500416e-01
 128 4 430284 1.1090532065687346e+03 1.0652123992180409e+03 1.2253580664542909e-12 3.2707140024630246e+02 9.8178425558721710e+02 8.4698411796257242e+03 -999 8.58059432e-01 5.123470155e-02 -1.79124998e-01
 129 4 430284 1.0937370773003254e+03 1.0558722020971124e+03 1.2739512933320078e-12 3.2609143065155149e+02 9.6458387574484493e+02 8.6518640635646934e+03 -999 8.63673661e-01 5.042228709e-02 -1.78933729e-01
 130 4 430284 1.0927418184888270e+03 1.0563283318601921e+03 1.2930613024633015e-12 3.2613490399170553e+02 9.6383043832379201e+02 8.9647251028116116e+03 -999 8.68949748e-01 4.967390845e-02 -1.78767499e-01
 131 4 430284 1.0523762428491673e+03 1.0443830568971402e+03 1.0363835271669861e-12 3.2370018598714944e+02 9.2660478307117398e+02 9.2734180172823544e+03 -999 8.74475223e-01 4.892053163e-02 -1.78602202e-01
 132 4 430284 1.0324374568174360e+03 1.0284779921411596e+03 9.4449728176109130e-13 3.2182310290333243e+02 9.0825099332953050e+02 9.4961566735240740e+03 -999 8.81166358e-01 4.805917732e-02 -1.78425688e-01
 133 4 430284 1.0301268485812395e+03 1.0113188846883276e+03 9.6994511618517882e-13 3.2004228076966092e+02 9.0810875729943223e+02 9.7438951211417989e+03 -999 8.88135861e-01 4.722533183e-02 -1.78254369e-01
 134 4 430284 1.0563587195017808e+03 1.0257311369112756e+03 1.0100403772637987e-12 3.1897781591590450e+02 9.3948456983800793e+02 9.9833387161804767e+03 -999 8.95298240e-01 4.641974959e-02 -1.78039822e-01
 135 4 430284 1.0504353826328891e+03 1.0111901497713246e+03 1.0179418607891868e-12 3.1693698184322488e+02 9.3349680683827364e+02 1.0208978329535707e+04 -999 8.99299546e-01 4.598806016e-02 -1.77865828e-01
 136 4 430284 1.0149661146043308e+03 9.9751829881853098e+02 8.4688163284776545e-13 3.1908311694171243e+02 8.9904757511745072e+02 1.0440492139365844e+04 -999 9.03306315e-01 4.556966839e-02 -1.77665260e-01
 137 4 430284 1.0003791805618310e+03 9.8020886885542575e+02 7.7815785333862450e-13 3.2196481210516544e+02 8.8614881281102043e+02 1.0759969016073295e+04 -999 9.08761571e-01 4.504169748e-02 -1.77376055e-01
 138 4 430284 1.0034851988762408e+03 9.6733203370799333e+02 8.2418031292809617e-13 3.2318481827554876e+02 8.9131248770115235e+02 1.0955935808648248e+04 -999 9.14893055e-01 4.450791573e-02 -1.77034077e-01
 139 4 430284 1.0072423375182765e+03 9.6471551253957784e+02 8.7256357139842281e-13 3.2339965916581963e+02 8.9455766235024646e+02 1.1103511690510088e+04 -999 9.19334121e-01 4.415703032e-02 -1.76746232e-01
 140 4 430284 1.0246047038917800e+03 9.7259048352862271e+02 9.1600014924449594e-13 3.2217523575629241e+02 9.1389026262758762e+02 1.1116693097198642e+04 -999 9.23647958e-01 4.383541518e-02 -1.76424058e-01
 141 4 430284 9.9303558595923960e+02 9.6457225444088863e+02 7.9952530127142763e-13 3.2544457723221507e+02 8.8298514776372735e+02 1.1076141173354556e+04 -999 9.26309156e-01 4.362862724e-02 -1.76147998e-01