TITLE = "005.02 ALPHA 3.50 GRIDLEVEL 5"

VARIABLES = "ITERATION"  "GRID_LEVEL"  "GRID_SIZE"  "CONTINUITY"  "MOMENTUMX"  "MOMENTUMY"  "MOMENTUMZ"  "ENERGY"  "TURB1"  "TURB2"  "CL_TOT"  "CD_TOT"  "CM_TOT"

DATASETAUXDATA ParticipantID   = "005"
DATASETAUXDATA SubmissionDate  = "10-31-2024"
DATASETAUXDATA Name            = "Jeffrey A. Housman"
DATASETAUXDATA Email           = "jeffrey.a.housman@nasa.gov"
DATASETAUXDATA Institution     = "NASA Ames Research Center"
DATASETAUXDATA SolverName      = "LAVA Curvilinear"
DATASETAUXDATA BasicAlgorithm  = "RANS"
DATASETAUXDATA TurbulenceModel = "SA-RC-comp-neg"
DATASETAUXDATA GridId          = "Multiblock"
DATASETAUXDATA Discretization  = "Finite difference"
DATASETAUXDATA Order           = "2"
DATASETAUXDATA DistanceCalc    = "Exact"
DATASETAUXDATA Notes           = " "

ZONE T = "005.02 - Alpha 3.50 - Grid Level 5"
AUXDATA Tstatic         = "271.0"
AUXDATA Deltat          = "-999"
AUXDATA GridFileName    = "ONERA-OAT15A_230mmChord_780mmSpan_upZ_2024_06_25-Structured_23mm_Level-5.x"
AUXDATA Misc            = " "
 0 5 752103 5.0097650485070294e+05 1.5987495267208382e+06 7.6805650617720918e-14 5.0107579711417551e+05 5.3438278521787061e+05 2.8731423357624910e+06 -999 1.76909685e-02 9.100176161e-01 -1.15767929e-02
 1 5 752103 7.4242534762666922e+05 1.1931771782961590e+06 6.5431625497724224e-14 3.7800126212302060e+05 7.2495696477276436e+05 1.8617013910751427e+06 -999 5.51706761e-02 8.323088576e-01 -2.64437889e-02
 2 5 752103 9.0480517145694885e+05 1.0169397197657065e+06 5.7071311206592107e-14 4.1386092585544533e+05 8.6991893280624552e+05 1.2111846799818140e+06 -999 1.00582554e-01 7.873455259e-01 -4.42087463e-02
 3 5 752103 1.0517784030255973e+06 9.0744598319986789e+05 5.0705897120731072e-14 4.8915036415886349e+05 1.0096022332760390e+06 7.9217909341921762e+05 -999 1.41957414e-01 7.580707500e-01 -6.08113392e-02
 4 5 752103 1.1787687932118797e+06 8.3030603814052592e+05 4.5753274851572108e-14 5.8092754197916423e+05 1.1425498103220819e+06 5.1074725706180144e+05 -999 1.78569572e-01 7.383950415e-01 -7.40241916e-02
 5 5 752103 1.3101970318723803e+06 8.3085103488242265e+05 4.1870375070334527e-14 6.7770772054304869e+05 1.2999009777106196e+06 3.2857693829548580e+05 -999 2.06777484e-01 7.231146457e-01 -8.40660605e-02
 6 5 752103 1.1974721950630064e+06 8.5639834449013346e+05 3.8943860088097545e-14 7.1144395984753850e+05 1.1898553299770169e+06 1.7461210786212012e+05 -999 2.26291224e-01 7.024152113e-01 -9.16986891e-02
 7 5 752103 1.2286621749628466e+06 8.6288318073346384e+05 3.6333493470010431e-14 7.4187331586760061e+05 1.2179170863942327e+06 1.2234030271881403e+05 -999 2.42152697e-01 6.796844976e-01 -9.84039082e-02
 8 5 752103 1.2910620500446351e+06 8.4353503436915798e+05 3.4409155261765047e-14 7.6184157599753398e+05 1.2999440047032849e+06 1.0065810081375680e+05 -999 2.54375811e-01 6.572031389e-01 -1.03375836e-01
 9 5 752103 1.5604030847654785e+06 9.1872559078305785e+05 3.2796234595743975e-14 8.3906539651712321e+05 1.6308221252920807e+06 8.8788577079103517e+04 -999 2.65996834e-01 6.321703581e-01 -1.07733147e-01
 10 5 752103 1.4586239437723111e+06 7.6722879698521062e+05 3.1876853810690375e-14 8.0805660689201893e+05 1.5030469029299105e+06 7.9666851062804722e+04 -999 2.72243634e-01 6.172797398e-01 -1.10012439e-01
 11 5 752103 1.3821298563692074e+06 7.8995430927623715e+05 3.0822155837590912e-14 7.9960176763296849e+05 1.4140521173539164e+06 7.1879900706444343e+04 -999 2.78779623e-01 6.007073559e-01 -1.12446665e-01
 12 5 752103 1.2827535637791313e+06 7.6929280866011220e+05 2.9802834985437751e-14 7.7121162797122367e+05 1.2990871448482359e+06 6.6106662107233788e+04 -999 2.84426144e-01 5.851683537e-01 -1.14447888e-01
 13 5 752103 1.4317992751698564e+06 8.1620141098404804e+05 2.8843034519432799e-14 8.0778655184871412e+05 1.4803691685670491e+06 6.1699694072372920e+04 -999 2.89840100e-01 5.688025304e-01 -1.16360528e-01
 14 5 752103 1.3482071451079838e+06 7.0066017336084961e+05 2.8277836845527547e-14 7.7174839868339058e+05 1.3764110033712541e+06 5.7739576638764505e+04 -999 2.92861864e-01 5.586348977e-01 -1.17494332e-01
 15 5 752103 1.5480487789301767e+06 8.4068645290892594e+05 2.7843456175576766e-14 8.0787215852756065e+05 1.6426551720854570e+06 5.4431404688928480e+04 -999 2.95742197e-01 5.482936456e-01 -1.18672479e-01
 16 5 752103 1.3012983674746144e+06 7.3389803875459288e+05 2.7296072834570969e-14 7.3883430218177056e+05 1.3657291847189278e+06 4.9998736747924115e+04 -999 2.97895273e-01 5.393783002e-01 -1.19586183e-01
 17 5 752103 1.2029382006459744e+06 6.8517615069467947e+05 2.6727997623467695e-14 7.1355056954564853e+05 1.2223009436466421e+06 4.6515960888835929e+04 -999 3.00075004e-01 5.293426558e-01 -1.20470465e-01
 18 5 752103 1.1776926228306349e+06 6.4521000481435820e+05 2.6328106403893521e-14 6.9543275242110633e+05 1.1888716780423324e+06 4.3748751195519450e+04 -999 3.01759958e-01 5.206345844e-01 -1.21074909e-01
 19 5 752103 1.3101149830026389e+06 6.8914360350187763e+05 2.6014272403236954e-14 7.0080743488453177e+05 1.3721558236617425e+06 4.1387166752311772e+04 -999 3.03168430e-01 5.127236890e-01 -1.21502803e-01
 20 5 752103 1.2943609396132929e+06 6.3085946501398715e+05 2.5797229562233327e-14 7.0287014010363398e+05 1.3416148160256299e+06 3.9270911704536826e+04 -999 3.04192712e-01 5.064563968e-01 -1.21776960e-01
 21 5 752103 1.1782607878222135e+06 6.5364533713793533e+05 2.5426843723402700e-14 6.6391805926911312e+05 1.2277745163226468e+06 3.6334525841368493e+04 -999 3.05023938e-01 5.003482213e-01 -1.21983034e-01
 22 5 752103 1.0492683374520438e+06 5.8154150535323762e+05 2.4989224778535032e-14 6.1928468594692717e+05 1.0724883764641604e+06 3.4028734098680492e+04 -999 3.05937703e-01 4.930593095e-01 -1.22203674e-01
 23 5 752103 1.0549356693757372e+06 5.9778190215968329e+05 2.4600434113844179e-14 6.0723810851976299e+05 1.0786163569917371e+06 3.2134677289442894e+04 -999 3.06742586e-01 4.860508715e-01 -1.22399270e-01
 24 5 752103 1.1926487265324891e+06 6.2893480980851571e+05 2.4321487486092746e-14 6.2495743889763951e+05 1.2506905627215086e+06 3.0592018815894782e+04 -999 3.07463639e-01 4.793031257e-01 -1.22582860e-01
 25 5 752103 1.1358987523282298e+06 5.4351205834562099e+05 2.4097706569149779e-14 6.0079360806899727e+05 1.1881738770959866e+06 2.9064772297237123e+04 -999 3.07894609e-01 4.749465488e-01 -1.22699176e-01
 26 5 752103 1.0176823903321929e+06 5.3427330942935112e+05 2.3706284081109720e-14 5.6894351552307711e+05 1.0616404098623423e+06 2.7022644219021131e+04 -999 3.08304534e-01 4.700194175e-01 -1.22807833e-01
 27 5 752103 9.0840656004655117e+05 5.1289813557910052e+05 2.3266997542711027e-14 5.3217147714816791e+05 9.3145210565144930e+05 2.5433043916845283e+04 -999 3.08757338e-01 4.644084844e-01 -1.22931096e-01
 28 5 752103 9.1461090664148086e+05 5.1160696572314249e+05 2.2899694552569953e-14 5.1839892989469442e+05 9.3530395874204906e+05 2.4121888279903247e+04 -999 3.09199216e-01 4.588340926e-01 -1.23052817e-01
 29 5 752103 1.0349593987789381e+06 5.4417916165917763e+05 2.2657723208418876e-14 5.2990145134123485e+05 1.0855272728100603e+06 2.3005738592917267e+04 -999 3.09610535e-01 4.535545355e-01 -1.23163922e-01
 30 5 752103 1.0015342784194358e+06 4.7542271830773534e+05 2.2545601248928964e-14 5.1602096496121580e+05 1.0482399574036496e+06 2.1912250621157258e+04 -999 3.09877583e-01 4.500460364e-01 -1.23234006e-01
 31 5 752103 8.8821888103818730e+05 4.7344343920069031e+05 2.2308765819207232e-14 4.8375086519655195e+05 9.3248724404115509e+05 2.0411648464216931e+04 -999 3.10139026e-01 4.460717028e-01 -1.23296498e-01
 32 5 752103 7.7566504225557635e+05 4.3782543586978829e+05 2.2066880840339583e-14 4.4760544048610138e+05 7.9852901516547636e+05 1.9252048775460997e+04 -999 3.10440553e-01 4.414947888e-01 -1.23368926e-01
 33 5 752103 7.6924700875225512e+05 4.2928289609232906e+05 2.1900580464437052e-14 4.3136272574014601e+05 7.8276571243923123e+05 1.8309099052107660e+04 -999 3.10745348e-01 4.368585776e-01 -1.23442593e-01
 34 5 752103 8.4519361190692394e+05 4.4973939477144444e+05 2.1868560351943537e-14 4.3104742321612453e+05 8.8535322604545241e+05 1.7472621274879439e+04 -999 3.10997591e-01 4.330023173e-01 -1.23504146e-01
 35 5 752103 9.6076878840735205e+05 5.4128905954114220e+05 2.1886057558433800e-14 4.4914689719091059e+05 1.0320411430573728e+06 1.6723290435006795e+04 -999 3.11232395e-01 4.293957801e-01 -1.23562130e-01
 36 5 752103 8.0012301206661726e+05 4.6601424312166893e+05 2.1702082035355031e-14 4.0783053031273140e+05 8.6297793084579241e+05 1.5587724738511886e+04 -999 3.11410182e-01 4.262787321e-01 -1.23602580e-01
 37 5 752103 6.6224660344689921e+05 3.8550160327325988e+05 2.1476290337230034e-14 3.7141962904000701e+05 6.9164432843976736e+05 1.4710764276584794e+04 -999 3.11626838e-01 4.225375570e-01 -1.23652852e-01
 38 5 752103 6.3314625708070828e+05 3.6376144526659808e+05 2.1272103760418980e-14 3.5176307377682789e+05 6.4294327277830627e+05 1.3987305924796674e+04 -999 3.11851907e-01 4.187139980e-01 -1.23706229e-01
 39 5 752103 6.9975098304433678e+05 3.7669692218293494e+05 2.1154292780252278e-14 3.4992487551596755e+05 7.2770805811311072e+05 1.3363399910592952e+04 -999 3.12055293e-01 4.153053430e-01 -1.23755396e-01
 40 5 752103 7.6245826711883664e+05 3.9332810641122604e+05 2.1100600401141395e-14 3.5587170154647727e+05 8.0529481175704976e+05 1.2792969353015436e+04 -999 3.12230506e-01 4.123965655e-01 -1.23798425e-01
 41 5 752103 6.4851679384286876e+05 3.6227031267653703e+05 2.0865903326786901e-14 3.2631673731418268e+05 6.9438581653699442e+05 1.1898207162812672e+04 -999 3.12378781e-01 4.096526166e-01 -1.23832153e-01
 42 5 752103 5.3472331156969606e+05 3.1531564421628357e+05 2.0572607029318065e-14 2.9591932328825543e+05 5.6087558616469009e+05 1.1181017465524152e+04 -999 3.12556365e-01 4.064394368e-01 -1.23873407e-01
 43 5 752103 4.9974772774088441e+05 2.8825084558339755e+05 2.0276860297982350e-14 2.7542971796307183e+05 5.0556949706968665e+05 1.0574384298424595e+04 -999 3.12756612e-01 4.029005090e-01 -1.23920834e-01
 44 5 752103 5.4330968695859099e+05 2.9434699769958534e+05 2.0075876292172546e-14 2.7046797272254573e+05 5.6075497890202922e+05 1.0053489940103425e+04 -999 3.12933980e-01 3.998359870e-01 -1.23963574e-01
 45 5 752103 5.9862764131520444e+05 3.3079516571592441e+05 1.9952747366701497e-14 2.7220717179016006e+05 6.3775529245676368e+05 9.5849581122640866e+03 -999 3.13082518e-01 3.973105552e-01 -1.23999882e-01
 46 5 752103 5.0642233840506774e+05 2.8035647868775466e+05 1.9705443398461748e-14 2.4929472359067557e+05 5.4428846109522111e+05 8.9090559938477636e+03 -999 3.13217216e-01 3.948048495e-01 -1.24030260e-01
 47 5 752103 4.1567835827456304e+05 2.4655961277595392e+05 1.9420501535357373e-14 2.2622260120145127e+05 4.3900505630618724e+05 8.3394743966246660e+03 -999 3.13375400e-01 3.919345888e-01 -1.24066588e-01
 48 5 752103 3.7872029855062271e+05 2.2516254891019515e+05 1.9139224197526696e-14 2.0864484042580647e+05 3.8470152604538063e+05 7.8486856187677340e+03 -999 3.13552821e-01 3.887962315e-01 -1.24108060e-01
 49 5 752103 4.0325703092733381e+05 2.2475399593085612e+05 1.8965903338661833e-14 2.0191515328780128e+05 4.1280237504624517e+05 7.4266105826448502e+03 -999 3.13719253e-01 3.859221218e-01 -1.24147677e-01
 50 5 752103 4.4000078336356930e+05 2.3879785700370872e+05 1.8888243233511205e-14 2.0109505000095026e+05 4.6177087965850561e+05 7.0497048423737506e+03 -999 3.13865630e-01 3.834387133e-01 -1.24183214e-01
 51 5 752103 3.7752302526860108e+05 2.1158426658998258e+05 1.8680260494552334e-14 1.8437463525380686e+05 4.0303722705439082e+05 6.5230097427052178e+03 -999 3.13990369e-01 3.811731008e-01 -1.24211475e-01
 52 5 752103 3.0832800877338741e+05 1.8663111017198316e+05 1.8410520778055895e-14 1.6594565159750328e+05 3.2760587483465945e+05 6.0774406259976568e+03 -999 3.14142187e-01 3.784723596e-01 -1.24246609e-01
 53 5 752103 2.7238638845134515e+05 1.6837438876168148e+05 1.8128195159644086e-14 1.5019425788252923e+05 2.7938179171586223e+05 5.6617561586064448e+03 -999 3.14316914e-01 3.754324793e-01 -1.24288043e-01
 54 5 752103 2.8041593660280778e+05 1.6445995073031686e+05 1.7933271689280699e-14 1.4204109186096798e+05 2.8672454127145506e+05 5.3077865973029484e+03 -999 3.14482860e-01 3.726054998e-01 -1.24328612e-01
 55 5 752103 2.9875527359037829e+05 1.7119963915110033e+05 1.7829921951824674e-14 1.3836802693819496e+05 3.1214195059695101e+05 4.9933028325989326e+03 -999 3.14631068e-01 3.701167679e-01 -1.24366212e-01
 56 5 752103 2.5715170604801792e+05 1.5304423761795397e+05 1.7639825324224629e-14 1.2713552356372337e+05 2.7355232189614209e+05 4.5790472114218564e+03 -999 3.14756003e-01 3.678759907e-01 -1.24396828e-01
 57 5 752103 2.1047977868348229e+05 1.3620421399179005e+05 1.7398962256554033e-14 1.1448630076709748e+05 2.2452634871074776e+05 4.2161086176309909e+03 -999 3.14906568e-01 3.652255332e-01 -1.24434598e-01
 58 5 752103 1.8183295551487737e+05 1.2285974336432149e+05 1.7142750946868962e-14 1.0268329669063560e+05 1.8903549841913290e+05 3.8898085658111704e+03 -999 3.15082673e-01 3.621859730e-01 -1.24480136e-01
 59 5 752103 1.7970704203661892e+05 1.1760779854199594e+05 1.6959994901837625e-14 9.5215215544841019e+04 1.8485816737428177e+05 3.6108099157605284e+03 -999 3.15255189e-01 3.592621645e-01 -1.24526736e-01
 60 5 752103 1.8401511884657305e+05 1.1675794596651792e+05 1.6870243343696689e-14 9.0598596799161853e+04 1.9134711354700086e+05 3.3729491224686349e+03 -999 3.15411508e-01 3.566427035e-01 -1.24571453e-01
 61 5 752103 1.5960651239797278e+05 1.0738268777673956e+05 1.6684574218114314e-14 8.3821216863068854e+04 1.6877569823497528e+05 3.0572882212146692e+03 -999 3.15537175e-01 3.544063957e-01 -1.24606469e-01
 62 5 752103 1.3097907875128389e+05 9.7963838717603576e+04 1.6450560138180583e-14 7.5902608720732504e+04 1.3947799653509908e+05 2.7838965765486673e+03 -999 3.15691423e-01 3.517049822e-01 -1.24650283e-01
 63 5 752103 1.1024387920719075e+05 8.9565498259609260e+04 1.6180308442825941e-14 6.7935654223976002e+04 1.1547031782011810e+05 2.5433518786022710e+03 -999 3.15875418e-01 3.485348154e-01 -1.24704144e-01
 64 5 752103 1.0365664829642914e+05 8.4437517148625993e+04 1.5964626635288354e-14 6.2134255691835613e+04 1.0724523346735988e+05 2.3414921486921808e+03 -999 3.16057800e-01 3.454340728e-01 -1.24760317e-01
 65 5 752103 1.0078472434049159e+05 8.1124387333882027e+04 1.5811644318802744e-14 5.7976503973296087e+04 1.0436028414807007e+05 2.1708751484927261e+03 -999 3.16223359e-01 3.426329291e-01 -1.24815118e-01
 66 5 752103 8.8060452963958465e+04 7.6329409994053378e+04 1.5618667507054213e-14 5.3538249448792674e+04 9.2333715406152623e+04 1.9477458391579225e+03 -999 3.16352344e-01 3.402613141e-01 -1.24854412e-01
 67 5 752103 7.2862191480006994e+04 7.1155987864029172e+04 1.5387068954439716e-14 4.8292680448309977e+04 7.6752650367284426e+04 1.7608675482926949e+03 -999 3.16510497e-01 3.373694257e-01 -1.24903033e-01
 68 5 752103 6.0302016035996232e+04 6.5967180722999328e+04 1.5086388359615726e-14 4.2633091518620015e+04 6.2679482744784851e+04 1.6036176623302015e+03 -999 3.16700676e-01 3.338989442e-01 -1.24962871e-01
 69 5 752103 5.3918084164235239e+04 6.1927321581532204e+04 1.4831546870389842e-14 3.7993292437753291e+04 5.5338203239478797e+04 1.4756505521511997e+03 -999 3.16888016e-01 3.304570131e-01 -1.25025049e-01
 70 5 752103 4.9689921116889709e+04 5.8749127909011870e+04 1.4627503090580548e-14 3.4396440677036138e+04 5.0703797918425240e+04 1.3717391027039919e+03 -999 3.17056264e-01 3.273049729e-01 -1.25085910e-01
 71 5 752103 4.3589069565962425e+04 5.5678222528926941e+04 1.4522622066924683e-14 3.1362746763700441e+04 4.4716056104624033e+04 1.2363460810341767e+03 -999 3.17174529e-01 3.244897264e-01 -1.25117452e-01
 72 5 752103 3.6438936712100163e+04 5.2199805346995185e+04 1.4579991071358626e-14 2.7862305544471685e+04 3.7319003958731148e+04 1.1339167561120264e+03 -999 3.17315074e-01 3.209778827e-01 -1.25152492e-01
 73 5 752103 3.0158374772656818e+04 4.8498278853734846e+04 1.4732565453628894e-14 2.4148496772218321e+04 3.0530075851419635e+04 1.0993610417526054e+03 -999 3.17475194e-01 3.166737932e-01 -1.25189356e-01
 74 5 752103 2.6282828737417876e+04 4.5381685798753657e+04 1.4852153224413401e-14 2.1161126250404694e+04 2.6437711830877757e+04 1.0902316703194494e+03 -999 3.17618761e-01 3.123508021e-01 -1.25220315e-01
 75 5 752103 2.3685562589521236e+04 4.2870427479153775e+04 1.4890600209797403e-14 1.8948710641333790e+04 2.3846570563455072e+04 1.1195571144263959e+03 -999 3.17735572e-01 3.082742430e-01 -1.25245429e-01
 76 5 752103 2.0883025428595243e+04 4.0460283554122871e+04 1.4451151169932032e-14 1.7136390231583133e+04 2.1296565337302723e+04 1.1939303282222641e+03 -999 3.17771492e-01 3.039574691e-01 -1.25192099e-01
 77 5 752103 1.8066516858914230e+04 3.7750800944432231e+04 1.3920051924637337e-14 1.5354898601368101e+04 1.8783809639453975e+04 1.4270923948914374e+03 -999 3.17814455e-01 2.982874812e-01 -1.25107682e-01
 78 5 752103 1.6258956016748389e+04 3.5031903473852952e+04 1.3327750057885220e-14 1.4027087374750334e+04 1.7375895507543439e+04 1.9763214509666077e+03 -999 3.17878688e-01 2.911415558e-01 -1.24991652e-01
 79 5 752103 1.5808753349307028e+04 3.2934205918289517e+04 1.2823937548651671e-14 1.3485852772156237e+04 1.7338690728182559e+04 2.8199464278274036e+03 -999 3.17978973e-01 2.838051652e-01 -1.24881722e-01
 80 5 752103 1.5948177666325097e+04 3.1375225275566583e+04 1.2419383004664182e-14 1.3350520501734580e+04 1.7834354079972109e+04 4.1498581389936253e+03 -999 3.18131639e-01 2.765331289e-01 -1.24804977e-01
 81 5 752103 1.5260733879536188e+04 2.8975551728850176e+04 1.4567650943847102e-14 1.2304707287000794e+04 1.7466295325612111e+04 9.3899856599342820e+03 -999 3.18496459e-01 2.664261499e-01 -1.24756545e-01
 82 5 752103 1.5261111245638494e+04 2.6783622226556916e+04 2.4284635928121604e-14 1.1658275655032781e+04 1.7678520272999311e+04 2.7459636422020420e+04 -999 3.19201178e-01 2.519785431e-01 -1.24875129e-01
 83 5 752103 1.5901836131575626e+04 2.6464826505018835e+04 3.9940338019845822e-14 1.1635180545617588e+04 1.8309464655746935e+04 6.5020534372747868e+04 -999 3.20166320e-01 2.348422521e-01 -1.25399300e-01
 84 5 752103 1.6609625951251361e+04 2.7431160511556431e+04 5.8845324286986909e-14 1.1869513092180458e+04 1.8932063132579293e+04 1.1252578367981949e+05 -999 3.20969980e-01 2.176011203e-01 -1.26424091e-01
 85 5 752103 1.7522377707241420e+04 3.2639915665633915e+04 8.0171942932673206e-14 1.2335162026499018e+04 2.2260401015970296e+04 1.8351338666187413e+05 -999 3.21228513e-01 1.995689055e-01 -1.27972943e-01
 86 5 752103 1.5363831465387970e+04 2.2235720208509738e+04 3.7437661291155851e-14 1.1020311179751172e+04 1.6688838360549882e+04 3.3924490192161722e+05 -999 3.20191914e-01 1.699914484e-01 -1.31236297e-01
 87 5 752103 1.3779320373861474e+04 2.3361720176203537e+04 1.9940503188879414e-14 1.0152824464422856e+04 1.5222317304452854e+04 2.9335289963530021e+05 -999 3.16583332e-01 1.458998512e-01 -1.33826902e-01
 88 5 752103 1.3333471386263966e+04 3.5259189532135941e+04 1.7229803195261862e-14 9.6174287690854544e+03 1.5767210167520927e+04 2.8793589664686588e+05 -999 3.15507005e-01 1.420133527e-01 -1.33999090e-01
 89 5 752103 1.3155823852607153e+04 3.8032664217239610e+04 1.6345461878593301e-14 9.4140769668814155e+03 1.4663030818992143e+04 1.4561950352083752e+05 -999 3.15080706e-01 1.406002700e-01 -1.34031549e-01
 90 5 752103 1.3020146098827621e+04 4.0042770313568864e+04 1.5717374777675130e-14 9.2536762944895199e+03 1.4310988097831054e+04 6.3925827609716529e+04 -999 3.14739926e-01 1.394762315e-01 -1.34050030e-01
 91 5 752103 1.1321760602154904e+04 2.1927589938602890e+04 1.2966761514086967e-14 7.4237788584922318e+03 1.1744218865451337e+04 2.8336340008186316e+05 -999 3.11271497e-01 1.277760922e-01 -1.33911176e-01
 92 5 752103 1.0231798879507040e+04 1.7985251041400919e+04 2.1589553893149542e-14 6.4449461872211459e+03 1.0491339559266495e+04 1.4935893189603460e+05 -999 3.09890472e-01 1.199342012e-01 -1.33633012e-01
 93 5 752103 9.6231578145620424e+03 1.6254343416321495e+04 4.9097918860753267e-14 5.7905608803531686e+03 9.8074227977220980e+03 4.7851404386271592e+04 -999 3.10114456e-01 1.154824527e-01 -1.33549504e-01
 94 5 752103 9.4506893642421874e+03 1.4860352308249425e+04 7.9050886155312557e-14 5.3395079409790524e+03 9.5932997843559442e+03 3.4570741130411385e+04 -999 3.11043411e-01 1.118375911e-01 -1.33592674e-01
 95 5 752103 9.1291431965694173e+03 1.4211540745212593e+04 9.6083808463133032e-14 5.1556661786399918e+03 9.4764140166161596e+03 1.7716085121620497e+04 -999 3.11928599e-01 1.100090072e-01 -1.33692885e-01
 96 5 752103 7.2395859106164580e+03 1.1330764744711185e+04 4.4945398385375686e-13 4.1933878866335554e+03 7.2839795887786995e+03 7.9845048949476797e+04 -999 3.24200689e-01 1.021984682e-01 -1.36839324e-01
 97 5 752103 6.1729847674668281e+03 1.0038239579758027e+04 9.1148300541869519e-13 3.9080639263239514e+03 6.2177366735556616e+03 8.5754179699471060e+04 -999 3.49403755e-01 9.218163826e-02 -1.43478024e-01
 98 5 752103 6.4822660232072403e+03 9.7839527753453804e+03 1.0506622566660064e-12 3.9682568922077053e+03 6.7897972965956114e+03 1.0312635606519165e+05 -999 3.88250537e-01 8.340618138e-02 -1.53886487e-01
 99 5 752103 6.4602756129531090e+03 9.0397448099898920e+03 9.2163752281866685e-13 3.4341467675774488e+03 7.1237192282602136e+03 1.1065177129369102e+05 -999 4.19865813e-01 7.969343230e-02 -1.62599101e-01
 100 5 752103 5.4432787446955745e+03 7.1032218765433081e+03 7.9468352723175987e-13 2.7967132763118275e+03 6.2800430454349007e+03 3.9469122072582650e+04 -999 4.43339096e-01 7.778794034e-02 -1.68767361e-01
 101 5 752103 3.4787875921474802e+03 5.0015878724087333e+03 8.7102509875838501e-13 2.2397684751143993e+03 3.9135102224069760e+03 6.8284981702350982e+04 -999 4.83838237e-01 7.493560306e-02 -1.78461827e-01
 102 5 752103 3.2015575475670580e+03 4.8948396097470750e+03 9.0948616601897355e-13 2.7044597386943092e+03 3.2784400363549944e+03 7.2645008037138541e+04 -999 5.32553229e-01 7.218833297e-02 -1.88557909e-01
 103 5 752103 3.1597559793615633e+03 4.3581765328078618e+03 7.5403217817003016e-13 2.2757569508183515e+03 3.0444084753085958e+03 9.5561866178612123e+04 -999 5.89149160e-01 7.001429126e-02 -1.97906978e-01
 104 5 752103 3.0511612283890299e+03 4.0545979630149086e+03 6.9369305128367787e-13 2.1871924446315847e+03 2.9222519181550306e+03 5.3752584109515075e+04 -999 6.33295113e-01 6.897360409e-02 -2.03078298e-01
 105 5 752103 2.9142943885299937e+03 3.9808888222559867e+03 6.5769350458814770e-13 1.7495736398466363e+03 2.8198303924134316e+03 1.8806045600418605e+04 -999 6.56298148e-01 6.861694594e-02 -2.04632151e-01
 106 5 752103 2.5096218344221925e+03 3.6142036252680309e+03 5.2826929220327649e-13 1.5969723667478941e+03 2.5766676774886878e+03 1.6348957916959074e+04 -999 6.84323815e-01 6.811408763e-02 -2.05626870e-01
 107 5 752103 2.3914797618642410e+03 3.4586308181256841e+03 5.5360073759679135e-13 1.6058485644910913e+03 2.5266629307375883e+03 1.3092902912162588e+04 -999 7.06701507e-01 6.806244943e-02 -2.05754078e-01
 108 5 752103 2.3282562022098386e+03 3.2401088880030802e+03 5.5111474264909730e-13 1.5148966413370065e+03 2.4715297705188400e+03 1.3857238875521010e+04 -999 7.30045141e-01 6.825243157e-02 -2.04981245e-01
 109 5 752103 2.2693914771257987e+03 3.0009501306578695e+03 4.4755802742292913e-13 1.4563691482126831e+03 2.3871556288232782e+03 1.4277639437234251e+04 -999 7.56064634e-01 6.889128213e-02 -2.04098578e-01
 110 5 752103 2.2191298592715757e+03 2.8240985342691752e+03 3.6453919606190253e-13 1.3611287831637765e+03 2.3057803657236127e+03 1.1705961491929504e+04 -999 7.73153612e-01 6.955152320e-02 -2.03381759e-01
 111 5 752103 2.2321253429154735e+03 2.3752677648229001e+03 5.0462612080248493e-13 8.4637706040279716e+02 2.1616291503101361e+03 1.1942955123297250e+04 -999 7.88922326e-01 7.037364585e-02 -2.03296680e-01
 112 5 752103 2.2888287816541833e+03 2.1585756953992827e+03 7.0059377180484838e-13 6.3101061865530266e+02 2.1665206755770832e+03 1.3205787777314970e+04 -999 8.13356777e-01 7.187465020e-02 -2.03094958e-01
 113 5 752103 2.2476154328875041e+03 2.0768165672678738e+03 5.2034956149933274e-13 5.6175407896503793e+02 2.1256016527769016e+03 1.0766821129049362e+04 -999 8.29540359e-01 7.293258242e-02 -2.02756271e-01
 114 5 752103 2.1907536369242293e+03 1.9961538064801400e+03 4.7725373017051592e-13 5.2739858712301657e+02 2.0709069753355416e+03 1.0180068658661619e+04 -999 8.45424278e-01 7.390377587e-02 -2.02082268e-01
 115 5 752103 2.1350125233675312e+03 1.9227374218992970e+03 5.8080067251907137e-13 4.9684688739480515e+02 2.0121170173609185e+03 9.7115373908112342e+03 -999 8.62139893e-01 7.482621521e-02 -2.00961560e-01
 116 5 752103 2.0651864938826207e+03 1.8472531573746826e+03 5.6168974183431580e-13 4.7692625521409036e+02 1.9372481521459767e+03 9.4770346624585072e+03 -999 8.74609449e-01 7.539768157e-02 -1.99721804e-01
 117 5 752103 1.9898006359190908e+03 1.7729280173302370e+03 6.3064790635076462e-13 4.5189155249541216e+02 1.8601659359423300e+03 9.4765313620838806e+03 -999 8.90717115e-01 7.600370048e-02 -1.97821089e-01
 118 5 752103 1.9195806047962762e+03 1.7196336514138463e+03 5.5379442146118385e-13 4.3018841773393314e+02 1.7822273724079294e+03 9.4902724462835649e+03 -999 9.07552644e-01 7.646022596e-02 -1.95748323e-01
 119 5 752103 1.8780412371288819e+03 1.6904631432059307e+03 4.5933731145158331e-13 4.2244295022583248e+02 1.7356179268360006e+03 9.4010260839984730e+03 -999 9.20195693e-01 7.660540371e-02 -1.94218335e-01
 120 5 752103 1.8158211748230199e+03 1.6517661635576685e+03 4.1750630469578573e-13 4.1268367332708033e+02 1.6722357269682047e+03 8.8711662866678453e+03 -999 9.28161605e-01 7.657509080e-02 -1.93315011e-01
 121 5 752103 1.7597806295100454e+03 1.6078523729123388e+03 2.8387117491592964e-13 4.0106637902994788e+02 1.6118586662452813e+03 8.7751073826965658e+03 -999 9.36553365e-01 7.642919961e-02 -1.92478345e-01
 122 5 752103 1.7097369965294479e+03 1.5544729445254336e+03 3.3346549096198822e-13 4.0203010547640798e+02 1.5550858298509675e+03 9.2363361460371761e+03 -999 9.48355974e-01 7.605830071e-02 -1.91457713e-01
 123 5 752103 1.6466171964309219e+03 1.5068899913375149e+03 3.9196069211756686e-13 4.1410734435532720e+02 1.4870665142937487e+03 9.3077204622886748e+03 -999 9.60724386e-01 7.540662518e-02 -1.90631559e-01
 124 5 752103 1.6063194841475324e+03 1.4678571138239026e+03 3.9312177502728692e-13 4.1134013233331052e+02 1.4379156984838969e+03 9.2588863101973620e+03 -999 9.68860528e-01 7.480432247e-02 -1.90302619e-01
 125 5 752103 1.5817059317288829e+03 1.4370609567009615e+03 3.9554876009179851e-13 4.1405420802605039e+02 1.4084179835355719e+03 9.0106273513007382e+03 -999 9.75566917e-01 7.421563353e-02 -1.90126402e-01
 126 5 752103 1.5348174386143894e+03 1.3925423101251588e+03 3.8816947210329700e-13 4.1180920628209390e+02 1.3610651080472294e+03 9.0075509949766329e+03 -999 9.83931249e-01 7.338782271e-02 -1.90005112e-01
 127 5 752103 1.4973530389343275e+03 1.3511454115608124e+03 4.7050640018602347e-13 4.0941894481187529e+02 1.3209750954554352e+03 8.8665193088742981e+03 -999 9.93337845e-01 7.239314253e-02 -1.90036164e-01
 128 5 752103 1.4789077524211687e+03 1.3251718302170639e+03 4.8304757614134472e-13 4.0743553673412288e+02 1.2983041437627865e+03 8.4866527078293257e+03 -999 1.00219107e+00 7.141019680e-02 -1.90184946e-01
 129 5 752103 1.4810078602744263e+03 1.3191216862842218e+03 4.7125672975497644e-13 4.0622562765218277e+02 1.2975232184169579e+03 8.3915467409627036e+03 -999 1.01058714e+00 7.044389104e-02 -1.90363559e-01
 130 5 752103 1.4792164970099905e+03 1.3271479217023395e+03 4.5304884312162144e-13 4.0642316101406669e+02 1.2958027899245997e+03 8.3738702583118811e+03 -999 1.01565060e+00 6.985316612e-02 -1.90474899e-01
 131 5 752103 1.4390397105069640e+03 1.2929800731619894e+03 3.3111246586918458e-13 4.0469451669761162e+02 1.2570042329464343e+03 8.7564500312576565e+03 -999 1.02050724e+00 6.929705784e-02 -1.90595084e-01
 132 5 752103 1.4297053171343671e+03 1.2829061842327596e+03 3.0971489378556361e-13 4.0550539164377665e+02 1.2469755959441836e+03 8.9366264442127576e+03 -999 1.02635386e+00 6.862889309e-02 -1.90712566e-01
 133 5 752103 1.4462281555839006e+03 1.2837931938583436e+03 3.3406459647346962e-13 4.0606528429857070e+02 1.2631465639128062e+03 8.9826081088205938e+03 -999 1.03342197e+00 6.785063634e-02 -1.90834064e-01
 134 5 752103 1.4645251606577831e+03 1.2954096413307911e+03 3.5020802949583487e-13 4.0422717667152079e+02 1.2834748306988668e+03 8.9822218946446483e+03 -999 1.03981969e+00 6.718784820e-02 -1.90909011e-01
 135 5 752103 1.4629574171469371e+03 1.2940919946765405e+03 3.5991833548716634e-13 4.0160988741071083e+02 1.2822430023843813e+03 8.8045585501606729e+03 -999 1.04351342e+00 6.683002079e-02 -1.90926207e-01
 136 5 752103 1.4288518684195515e+03 1.2821745010459219e+03 3.0120480527654006e-13 3.9694687332716899e+02 1.2511572198153906e+03 8.9741649585002506e+03 -999 1.04814018e+00 6.641869161e-02 -1.90954590e-01
 137 5 752103 1.4336527252877040e+03 1.2760008145861877e+03 3.5234411623446141e-13 3.9547948647394901e+02 1.2563738587366995e+03 9.0596914326617880e+03 -999 1.05358812e+00 6.595665318e-02 -1.90926788e-01
 138 5 752103 1.4522525093718336e+03 1.2724800536039863e+03 4.0288743527152706e-13 3.9317904308660587e+02 1.2773680236473565e+03 9.1336943281427302e+03 -999 1.05935045e+00 6.551684184e-02 -1.90849305e-01
 139 5 752103 1.4635024080407536e+03 1.2818472039368328e+03 4.2598755466578407e-13 3.9059783551123661e+02 1.2892157422019907e+03 9.1678514988967781e+03 -999 1.06367241e+00 6.522937590e-02 -1.90750776e-01
 140 5 752103 1.4908469558575612e+03 1.2995843043125551e+03 4.4403364482358088e-13 3.8960525768966090e+02 1.3147099157729313e+03 9.3185248120731831e+03 -999 1.06738980e+00 6.500686748e-02 -1.90629276e-01
 141 5 752103 1.4584932571860109e+03 1.2874286323857539e+03 4.0143620209547349e-13 3.8333580725406830e+02 1.2854083338825080e+03 9.5533073013181820e+03 -999 1.07051115e+00 6.484817013e-02 -1.90519266e-01