TITLE = "005.02 ALPHA 3.40 GRIDLEVEL 6"

VARIABLES = "ITERATION"  "GRID_LEVEL"  "GRID_SIZE"  "CONTINUITY"  "MOMENTUMX"  "MOMENTUMY"  "MOMENTUMZ"  "ENERGY"  "TURB1"  "TURB2"  "CL_TOT"  "CD_TOT"  "CM_TOT"

DATASETAUXDATA ParticipantID   = "005"
DATASETAUXDATA SubmissionDate  = "10-31-2024"
DATASETAUXDATA Name            = "Jeffrey A. Housman"
DATASETAUXDATA Email           = "jeffrey.a.housman@nasa.gov"
DATASETAUXDATA Institution     = "NASA Ames Research Center"
DATASETAUXDATA SolverName      = "LAVA Curvilinear"
DATASETAUXDATA BasicAlgorithm  = "RANS"
DATASETAUXDATA TurbulenceModel = "SA-RC-comp-neg"
DATASETAUXDATA GridId          = "Multiblock"
DATASETAUXDATA Discretization  = "Finite difference"
DATASETAUXDATA Order           = "2"
DATASETAUXDATA DistanceCalc    = "Exact"
DATASETAUXDATA Notes           = " "

ZONE T = "005.02 - Alpha 3.40 - Grid Level 6"
AUXDATA Tstatic         = "271.0"
AUXDATA Deltat          = "-999"
AUXDATA GridFileName    = "ONERA-OAT15A_230mmChord_780mmSpan_upZ_2024_06_25-Structured_23mm_Level-6.x"
AUXDATA Misc            = " "
 0 6 1281933 6.2714737183530524e+05 2.2416432990833339e+06 1.0839279083606075e-13 6.4595434964135918e+05 6.8136950380747544e+05 4.1603513262978368e+06 -999 1.98971232e-02 1.052882151e+00 -1.23580025e-02
 1 6 1281933 9.5414423855514510e+05 1.6376240910153585e+06 9.0831795708367761e-14 4.7429491790776956e+05 9.3310142463674233e+05 2.6960875847411486e+06 -999 5.41745965e-02 9.457563621e-01 -2.61351154e-02
 2 6 1281933 1.1682018260192771e+06 1.3747679851955799e+06 7.8097458128814807e-14 5.1684867320251971e+05 1.1237495214045863e+06 1.7545324993210752e+06 -999 9.75733049e-02 8.809001727e-01 -4.33996260e-02
 3 6 1281933 1.3531577304955004e+06 1.2147270539232071e+06 6.8521468027364482e-14 6.1462054533676570e+05 1.3000971862610562e+06 1.1482200595313513e+06 -999 1.38147088e-01 8.368495061e-01 -5.97594704e-02
 4 6 1281933 1.5046949530551436e+06 1.1063856375066435e+06 6.1148943005504436e-14 7.3341655741543462e+05 1.4612150164167895e+06 7.4597977860854298e+05 -999 1.74264511e-01 8.054816443e-01 -7.28738113e-02
 5 6 1281933 1.6667670231216773e+06 1.1030252874412162e+06 5.5389006132366379e-14 8.5656600621524861e+05 1.6631280703777189e+06 4.8087940811317909e+05 -999 2.01979975e-01 7.805311116e-01 -8.29385984e-02
 6 6 1281933 1.5080731649126080e+06 1.1049832228882257e+06 5.0958704036603845e-14 8.8701887870064401e+05 1.5080026092136614e+06 2.8739834149880597e+05 -999 2.21220349e-01 7.511301822e-01 -9.05618932e-02
 7 6 1281933 1.5340703200248508e+06 1.0983366622265349e+06 4.6828676535320316e-14 9.1954484003772063e+05 1.5340746871309134e+06 1.6159259688870164e+05 -999 2.37571438e-01 7.196407866e-01 -9.74733460e-02
 8 6 1281933 1.6171965801750850e+06 1.0510599118926828e+06 4.3782680719980525e-14 9.4705172438288399e+05 1.6344182941628138e+06 1.2591625496707103e+05 -999 2.49689243e-01 6.909129244e-01 -1.02410765e-01
 9 6 1281933 1.8472226586887019e+06 1.0972448658232703e+06 4.1499496213376666e-14 1.0029542455963480e+06 1.9333574401279434e+06 1.0779675466552787e+05 -999 2.59077279e-01 6.650337000e-01 -1.06007350e-01
 10 6 1281933 1.8701947534757841e+06 1.0282913182458192e+06 3.9847635390021287e-14 1.0210695601939367e+06 1.9438262368701787e+06 9.5989182203296339e+04 -999 2.65803751e-01 6.445762770e-01 -1.08552907e-01
 11 6 1281933 1.7386831659859018e+06 1.0437801307428194e+06 3.8338800610164888e-14 9.9051854762731155e+05 1.8092736084472402e+06 8.7296589024084184e+04 -999 2.71329313e-01 6.265980940e-01 -1.10692192e-01
 12 6 1281933 1.6070789965433180e+06 9.3738851724418765e+05 3.6655480508792777e-14 9.6172601949242514e+05 1.6303087585633970e+06 8.0756887532297798e+04 -999 2.77204476e-01 6.063293911e-01 -1.12851028e-01
 13 6 1281933 1.6447817529971688e+06 9.8540644295856915e+05 3.5344391022019212e-14 9.6954538961279287e+05 1.6826263949851594e+06 7.5414027102874563e+04 -999 2.81663239e-01 5.897035474e-01 -1.14461439e-01
 14 6 1281933 1.9005782200002701e+06 1.0805621385129914e+06 3.4213165654759737e-14 1.0326444587347886e+06 2.0075674911722806e+06 7.1066104133427536e+04 -999 2.85532573e-01 5.741258690e-01 -1.15933974e-01
 15 6 1281933 1.7625551736699070e+06 8.7924397585375316e+05 3.3515511340979768e-14 9.6855193735744292e+05 1.8325036828281065e+06 6.6848285624908647e+04 -999 2.87555434e-01 5.651846953e-01 -1.16762430e-01
 16 6 1281933 1.6314486582642554e+06 8.9091672866368934e+05 3.2601788929251553e-14 9.4672195794840588e+05 1.6789953995915325e+06 6.2747912494078773e+04 -999 2.89700758e-01 5.547516445e-01 -1.17637834e-01
 17 6 1281933 1.5142408098987648e+06 8.7561815341718600e+05 3.1688942782580490e-14 9.1107785904465383e+05 1.5366474463956277e+06 5.9519089436793191e+04 -999 2.91561595e-01 5.447593113e-01 -1.18333336e-01
 18 6 1281933 1.6629700296323798e+06 9.3122400692431268e+05 3.0813166559065485e-14 9.4115685516009538e+05 1.7207652332918532e+06 5.6954741289337326e+04 -999 2.93337612e-01 5.341192607e-01 -1.18915206e-01
 19 6 1281933 1.6269350074371512e+06 8.1453716642504151e+05 3.0233433614975188e-14 9.2385323110170546e+05 1.6676223754251555e+06 5.4519771018782674e+04 -999 2.94429986e-01 5.268383703e-01 -1.19213339e-01
 20 6 1281933 1.8014591282475530e+06 9.4518561999244487e+05 2.9730789688574697e-14 9.3799494001325185e+05 1.9087800038936741e+06 5.2285147663914839e+04 -999 2.95436787e-01 5.196910438e-01 -1.19467412e-01
 21 6 1281933 1.5254966535827850e+06 8.1768595008877316e+05 2.9129504594701996e-14 8.7669132019191631e+05 1.5896514654009864e+06 4.8902542932550423e+04 -999 2.96297566e-01 5.124314322e-01 -1.19670579e-01
 22 6 1281933 1.4204888861953404e+06 8.0794135003618838e+05 2.8571758842410617e-14 8.4654592853923049e+05 1.4441860879964195e+06 4.6376937921159872e+04 -999 2.97110448e-01 5.050027746e-01 -1.19862969e-01
 23 6 1281933 1.4769866567128361e+06 7.7543323382943298e+05 2.8111165124383263e-14 8.4968857220665133e+05 1.5066862562353290e+06 4.4409003841636193e+04 -999 2.97859494e-01 4.975602457e-01 -1.20048536e-01
 24 6 1281933 1.5257825390155548e+06 7.6717462499962072e+05 2.7773062772149252e-14 8.3695763049216906e+05 1.5854700036413427e+06 4.2572286201030685e+04 -999 2.98379725e-01 4.919077829e-01 -1.20183978e-01
 25 6 1281933 1.7371276129997440e+06 9.6636686827376671e+05 2.7500086299768690e-14 8.8937381760456890e+05 1.8619320832568069e+06 4.1108008599461704e+04 -999 2.98900352e-01 4.859153623e-01 -1.20323779e-01
 26 6 1281933 1.4690774420905025e+06 8.3849614249531401e+05 2.7057048282542633e-14 8.1172253754182684e+05 1.5625377771486016e+06 3.8363904573126427e+04 -999 2.99263931e-01 4.809637843e-01 -1.20417423e-01
 27 6 1281933 1.3012508579965364e+06 7.2283813521703053e+05 2.6619740253071464e-14 7.6560756786111335e+05 1.3352146607838767e+06 3.6387780121546508e+04 -999 2.99673866e-01 4.752811389e-01 -1.20523102e-01
 28 6 1281933 1.3082538552205982e+06 7.0601646521262755e+05 2.6273664410941470e-14 7.5267207773620950e+05 1.3329817258419634e+06 3.4839134237733211e+04 -999 3.00068498e-01 4.697007442e-01 -1.20622490e-01
 29 6 1281933 1.4083375825062739e+06 7.2808093808011478e+05 2.6063772703596544e-14 7.5185420676847221e+05 1.4774582120843548e+06 3.3457100270142080e+04 -999 3.00389889e-01 4.651076910e-01 -1.20701273e-01
 30 6 1281933 1.5756015911049419e+06 8.6869723010854865e+05 2.5897145874268085e-14 7.8814163692646800e+05 1.6896186531078499e+06 3.2294747808870292e+04 -999 3.00699875e-01 4.606615040e-01 -1.20776570e-01
 31 6 1281933 1.3255458561208271e+06 7.5714989856473124e+05 2.5513065188286956e-14 7.1924871566979855e+05 1.4167281273034236e+06 3.0164096836399753e+04 -999 3.00947319e-01 4.566012178e-01 -1.20832655e-01
 32 6 1281933 1.1538947869950873e+06 6.4640101437030500e+05 2.5111918779627609e-14 6.7171365588904126e+05 1.1916014446816451e+06 2.8674421530884229e+04 -999 3.01219334e-01 4.521172396e-01 -1.20895772e-01
 33 6 1281933 1.1738242846125017e+06 6.3788350141601334e+05 2.4757693379060869e-14 6.5859099069096416e+05 1.2021289163572199e+06 2.7495459190959831e+04 -999 3.01514241e-01 4.472273270e-01 -1.20966426e-01
 34 6 1281933 1.2465935980998480e+06 6.2601051997195161e+05 2.4560705700134483e-14 6.5891530388346943e+05 1.3007268311383228e+06 2.6417778088525803e+04 -999 3.01742192e-01 4.434209639e-01 -1.21023116e-01
 35 6 1281933 1.3760437415662799e+06 7.4086969538611744e+05 2.4469361643963247e-14 6.7086563747504505e+05 1.4823659425818471e+06 2.5421333146973491e+04 -999 3.01940988e-01 4.400793496e-01 -1.21073942e-01
 36 6 1281933 1.1660943613487368e+06 6.3169189562965848e+05 2.4211753610946318e-14 6.2081323190478003e+05 1.2487900316174224e+06 2.3758449969257297e+04 -999 3.02114030e-01 4.367875568e-01 -1.21116340e-01
 37 6 1281933 1.0018887771105379e+06 5.7055862888350617e+05 2.3930879507454081e-14 5.7640424061503541e+05 1.0373516400102635e+06 2.2583795195727504e+04 -999 3.02324716e-01 4.328285616e-01 -1.21169387e-01
 38 6 1281933 9.9232669821487064e+05 5.5032714041216869e+05 2.3752367814480636e-14 5.5615018278019386e+05 1.0125842955644018e+06 2.1642354404925583e+04 -999 3.02536304e-01 4.289086012e-01 -1.21224120e-01
 39 6 1281933 1.1015424545893103e+06 5.8336692632358288e+05 2.3712882743989644e-14 5.5975679879813350e+05 1.1560338644211374e+06 2.0800969454590286e+04 -999 3.02722679e-01 4.255053975e-01 -1.21273312e-01
 40 6 1281933 1.2257364911879466e+06 6.5867811050788662e+05 2.3775047829009289e-14 5.7948678616783570e+05 1.3140816766315743e+06 2.0035608404963368e+04 -999 3.02890859e-01 4.224704138e-01 -1.21318279e-01
 41 6 1281933 1.0357387043846896e+06 5.7943051096869586e+05 2.3515751678796465e-14 5.3109089362031117e+05 1.1156667548638196e+06 1.8716248461776875e+04 -999 3.03029196e-01 4.197196822e-01 -1.21353147e-01
 42 6 1281933 8.6575508066568105e+05 4.9051645772764721e+05 2.3201226358295302e-14 4.8723111852264334e+05 9.0318488894287392e+05 1.7784542596722004e+04 -999 3.03200697e-01 4.163912128e-01 -1.21397002e-01
 43 6 1281933 8.3814374270673655e+05 4.6679032844523713e+05 2.2930144666280436e-14 4.6493546639144042e+05 8.5139263856014598e+05 1.7036368297328918e+04 -999 3.03382905e-01 4.129484988e-01 -1.21444284e-01
 44 6 1281933 9.2120803142914118e+05 4.8791193214080157e+05 2.2805577657142598e-14 4.6425778518676147e+05 9.5982186636683682e+05 1.6370718562299693e+04 -999 3.03543406e-01 4.099885407e-01 -1.21486455e-01
 45 6 1281933 1.0365994263843042e+06 5.6990127338379994e+05 2.2781167209159044e-14 4.7634453091276390e+05 1.1137867667228992e+06 1.5752121068884320e+04 -999 3.03685127e-01 4.074205026e-01 -1.21524045e-01
 46 6 1281933 8.7498179952258209e+05 4.7970222227696428e+05 2.2555027230278390e-14 4.3770886707710271e+05 9.4407932656334282e+05 1.4707209478588269e+04 -999 3.03808725e-01 4.049889991e-01 -1.21555004e-01
 47 6 1281933 7.2745537429772574e+05 4.1335280672911857e+05 2.2290363869951830e-14 4.0147984984670952e+05 7.6380845949884900e+05 1.3936038363836062e+04 -999 3.03956504e-01 4.021540014e-01 -1.21592608e-01
 48 6 1281933 6.8329212096235913e+05 3.8211633007858106e+05 2.2054687785817616e-14 3.7810738851019822e+05 6.9149860507174092e+05 1.3299047158981601e+04 -999 3.04119681e-01 3.991041943e-01 -1.21634798e-01
 49 6 1281933 7.4427152324191155e+05 3.9290804029957991e+05 2.1940737842142573e-14 3.7369236035756068e+05 7.6635028180460713e+05 1.2737604070917221e+04 -999 3.04271411e-01 3.963364692e-01 -1.21674612e-01
 50 6 1281933 8.2951308491671330e+05 4.3445809655577206e+05 2.1940336616884616e-14 3.7959743399901368e+05 8.7841811539878626e+05 1.2220930397457696e+04 -999 3.04405052e-01 3.939434975e-01 -1.21710119e-01
 51 6 1281933 7.0856873631063290e+05 3.7858013437674748e+05 2.1749954482454538e-14 3.4984162408706365e+05 7.5922583644910937e+05 1.1392665947088657e+04 -999 3.04521822e-01 3.916993944e-01 -1.21739664e-01
 52 6 1281933 5.8734797726909502e+05 3.3181454787683056e+05 2.1523263218812738e-14 3.1977844464893505e+05 6.1826862033984112e+05 1.0748029063271813e+04 -999 3.04661242e-01 3.890854819e-01 -1.21775500e-01
 53 6 1281933 5.4268546470635268e+05 3.0455839036803256e+05 2.1324901642756812e-14 2.9811420081798767e+05 5.4998381560075702e+05 1.0197295446605538e+04 -999 3.04818166e-01 3.862195366e-01 -1.21816489e-01
 54 6 1281933 5.8204205871879356e+05 3.0927715662882052e+05 2.1240073495108976e-14 2.9118961287600134e+05 5.9536132108040014e+05 9.7074176953698352e+03 -999 3.04966585e-01 3.835777397e-01 -1.21855883e-01
 55 6 1281933 6.3875381238074775e+05 3.3427238911384193e+05 2.1264223631463742e-14 2.9202051807726297e+05 6.7144506375611131e+05 9.2657533511660840e+03 -999 3.05097780e-01 3.812899690e-01 -1.21891252e-01
 56 6 1281933 5.4984500193944271e+05 2.9330541182223527e+05 2.1072408864088591e-14 2.7011111653033254e+05 5.8590915526077803e+05 8.6326434628933894e+03 -999 3.05212654e-01 3.791732230e-01 -1.21921232e-01
 57 6 1281933 4.5606708395312092e+05 2.5844332673080600e+05 2.0832004535796394e-14 2.4690057653142858e+05 4.8108357437916950e+05 8.1057698591375311e+03 -999 3.05351541e-01 3.766794267e-01 -1.21958162e-01
 58 6 1281933 4.1386134222285886e+05 2.3512497159709936e+05 2.0611548080946178e-14 2.2649390759631505e+05 4.2168480045585352e+05 7.6373150335460978e+03 -999 3.05514071e-01 3.738779199e-01 -1.22001902e-01
 59 6 1281933 4.3440511085306102e+05 2.3340872195278428e+05 2.0516780604609973e-14 2.1712485234865901e+05 4.4317548514400853e+05 7.2019036654384881e+03 -999 3.05672042e-01 3.712214913e-01 -1.22045449e-01
 60 6 1281933 4.6802587151263509e+05 2.4880046612156383e+05 2.0535665505250022e-14 2.1404275291204412e+05 4.8904654876180913e+05 6.8538968056034337e+03 -999 3.05811273e-01 3.689249059e-01 -1.22084887e-01
 61 6 1281933 4.0390891854888404e+05 2.1902145079466890e+05 2.0343038471147154e-14 1.9746274864527513e+05 4.2824271600865060e+05 6.3351844234519649e+03 -999 3.05932101e-01 3.668511234e-01 -1.22118870e-01
 62 6 1281933 3.3458080565281759e+05 1.9339041191379994e+05 2.0103515618564525e-14 1.7926663226228391e+05 3.5362654174710566e+05 5.9135074117343647e+03 -999 3.06077659e-01 3.643985016e-01 -1.22160536e-01
 63 6 1281933 2.9848023253910459e+05 1.7547238228006431e+05 1.9867710060309511e-14 1.6337890635255483e+05 3.0654603151995869e+05 5.5307860631706926e+03 -999 3.06246349e-01 3.616098964e-01 -1.22209811e-01
 64 6 1281933 3.0421539219770598e+05 1.7079478705489333e+05 1.9739881132577815e-14 1.5445094069235076e+05 3.1067982988950086e+05 5.1943457166872695e+03 -999 3.06409875e-01 3.589531740e-01 -1.22258820e-01
 65 6 1281933 3.1853083716510556e+05 1.7372464577840929e+05 1.9728345120484386e-14 1.4961476611312074e+05 3.3010825230351422e+05 4.9024051626985629e+03 -999 3.06556939e-01 3.565892395e-01 -1.22304330e-01
 66 6 1281933 2.7675846298238472e+05 1.5724981831379444e+05 1.9547541603428948e-14 1.3853032038609122e+05 2.9134893552913942e+05 4.5014492974196810e+03 -999 3.06677896e-01 3.545459640e-01 -1.22341266e-01
 67 6 1281933 2.2920158555242929e+05 1.4144085158790069e+05 1.9325277483318791e-14 1.2577469523532064e+05 2.4188614238991632e+05 4.1680904897082246e+03 -999 3.06824794e-01 3.520889660e-01 -1.22386545e-01
 68 6 1281933 1.9999045726635234e+05 1.2886912750376829e+05 1.9080041511320935e-14 1.1366537079868244e+05 2.0654913754180435e+05 3.8568766431130475e+03 -999 3.06996396e-01 3.492457701e-01 -1.22440160e-01
 69 6 1281933 1.9682521394603926e+05 1.2315014484911405e+05 1.8943674003906307e-14 1.0565635723290614e+05 2.0153691433483805e+05 3.6046212123950736e+03 -999 3.07163035e-01 3.465027641e-01 -1.22493507e-01
 70 6 1281933 1.9900526248863229e+05 1.2073702917125812e+05 1.8922110038820001e-14 1.0028271457875284e+05 2.0519672599347230e+05 3.3713179256353160e+03 -999 3.07312776e-01 3.440384351e-01 -1.22543363e-01
 71 6 1281933 1.7359119902801150e+05 1.1156594143553199e+05 1.8743715745863793e-14 9.3148424060493679e+04 1.8164258101496031e+05 3.0809734828886126e+03 -999 3.07431110e-01 3.419570577e-01 -1.22581118e-01
 72 6 1281933 1.4377112281907740e+05 1.0224595610091162e+05 1.8517458632611131e-14 8.4718905904321437e+04 1.5114400913892413e+05 2.8291810515968323e+03 -999 3.07575041e-01 3.394376275e-01 -1.22627291e-01
 73 6 1281933 1.2256957653695456e+05 9.4007010221319666e+04 1.8259596261715273e-14 7.6080309890057164e+04 1.2684138073270636e+05 2.6085101972789353e+03 -999 3.07744899e-01 3.364752730e-01 -1.22682517e-01
 74 6 1281933 1.1561835051136943e+05 8.8781646188085069e+04 1.8091764218628369e-14 6.9518629818721340e+04 1.1854532758000845e+05 2.4216854644489263e+03 -999 3.07910292e-01 3.335904551e-01 -1.22738089e-01
 75 6 1281933 1.1202811093491217e+05 8.5013794376781530e+04 1.8038134091258777e-14 6.4545907995446243e+04 1.1499175436218038e+05 2.2611659594795615e+03 -999 3.08058476e-01 3.309886943e-01 -1.22790844e-01
 76 6 1281933 9.7973947172352360e+04 7.9751417680723258e+04 1.7875061594841488e-14 5.9031978976420301e+04 1.0176672784750810e+05 2.0528957015581682e+03 -999 3.08170923e-01 3.287886640e-01 -1.22826901e-01
 77 6 1281933 8.1153168872469585e+04 7.4068665864083974e+04 1.7649531831028984e-14 5.2599274115200831e+04 8.4639786284916074e+04 1.8772853821572048e+03 -999 3.08308118e-01 3.260969539e-01 -1.22870947e-01
 78 6 1281933 6.7493731341243649e+04 6.8454547391307555e+04 1.7385839219548743e-14 4.5773779473968003e+04 6.9549019311365002e+04 1.7491881570778605e+03 -999 3.08471947e-01 3.228628697e-01 -1.22924282e-01
 79 6 1281933 6.0524168373796238e+04 6.4134446307938306e+04 1.7164334336250246e-14 4.0297500453434361e+04 6.1788438856661327e+04 1.6478861283731485e+03 -999 3.08631030e-01 3.196770297e-01 -1.22978469e-01
 80 6 1281933 5.5725730020950185e+04 6.0673846283839026e+04 1.7036894835552449e-14 3.6086014846974314e+04 5.6688749244892068e+04 1.5706600318902883e+03 -999 3.08773364e-01 3.167541733e-01 -1.23031130e-01
 81 6 1281933 4.8477381843124997e+04 5.7237555264813665e+04 1.7004498517210305e-14 3.2767551516888991e+04 4.9692114724002837e+04 1.4815904779522889e+03 -999 3.08869708e-01 3.141296311e-01 -1.23055933e-01
 82 6 1281933 3.9905191336240845e+04 5.3403478743979518e+04 1.7074385260394275e-14 2.8945728582164658e+04 4.0974039985418829e+04 1.4653806943031918e+03 -999 3.08984383e-01 3.108390262e-01 -1.23082881e-01
 83 6 1281933 3.2484443346364686e+04 4.9440537995082326e+04 1.7024414104647457e-14 2.4968812140625691e+04 3.3082621339276368e+04 1.6003749113649776e+03 -999 3.09116165e-01 3.067707679e-01 -1.23110645e-01
 84 6 1281933 2.8131608396582993e+04 4.6256899935387781e+04 1.6800115315163156e-14 2.1908474631638477e+04 2.8539963484094758e+04 1.8950624299799838e+03 -999 3.09235087e-01 3.026754837e-01 -1.23133681e-01
 85 6 1281933 2.5362991470439443e+04 4.3792374771680632e+04 1.6502075148046710e-14 1.9789980188614994e+04 2.5778927701806326e+04 2.3112904257139621e+03 -999 3.09333202e-01 2.987926654e-01 -1.23153122e-01
 86 6 1281933 2.2094277654835016e+04 4.1201579625777318e+04 1.6201625371319192e-14 1.7965282357304051e+04 2.2783246136313119e+04 2.7926877186970883e+03 -999 3.09373900e-01 2.945778896e-01 -1.23109172e-01
 87 6 1281933 1.8794227243774352e+04 3.8318269708379805e+04 1.5841165564887006e-14 1.6123565021233147e+04 1.9794216292104022e+04 3.4614896444632659e+03 -999 3.09442614e-01 2.890461172e-01 -1.23042039e-01
 88 6 1281933 1.6772132591675247e+04 3.5614999901606774e+04 1.5385795261779744e-14 1.4658159701865678e+04 1.8204273744952621e+04 5.7368527024406976e+03 -999 3.09581072e-01 2.821505453e-01 -1.22950076e-01
 89 6 1281933 1.6306014934187964e+04 3.3720449439693388e+04 1.4995316372038481e-14 1.3900514125942178e+04 1.8212004354322045e+04 1.2080564867983798e+04 -999 3.09807158e-01 2.748821311e-01 -1.22864148e-01
 90 6 1281933 1.6485889546665581e+04 3.2614286676993470e+04 1.4748063801528603e-14 1.3626164173096755e+04 1.8758423929391392e+04 2.0439611770635340e+04 -999 3.10104352e-01 2.677429204e-01 -1.22822155e-01
 91 6 1281933 1.5793047131645902e+04 3.0193534527627166e+04 4.7587696049395896e-14 1.2919256671589301e+04 1.8277220726300300e+04 5.6417178062135048e+04 -999 3.10634149e-01 2.575410486e-01 -1.22873398e-01
 92 6 1281933 1.6038260672626993e+04 2.8977041449518922e+04 9.9271134800034761e-14 1.2681746972203544e+04 1.8673762472359620e+04 1.5441646638793938e+05 -999 3.11431316e-01 2.429309996e-01 -1.23177320e-01
 93 6 1281933 1.6870566301389339e+04 3.1987585343592862e+04 1.4357139899556546e-13 1.2646158467906671e+04 2.0029028915562867e+04 2.1457371380543278e+05 -999 3.12240534e-01 2.248670245e-01 -1.24019488e-01
 94 6 1281933 1.7083496521856865e+04 3.6850602634279654e+04 1.5315785566803446e-13 1.2636103525522774e+04 2.3450990557849880e+04 2.7671931001822033e+05 -999 3.12364037e-01 2.169438136e-01 -1.24622670e-01
 95 6 1281933 1.7144986544159059e+04 3.7749676444415498e+04 1.5706736982459221e-13 1.2910828212521103e+04 2.7057763886677469e+04 2.4817613269854680e+05 -999 3.12331152e-01 2.122624660e-01 -1.25018769e-01
 96 6 1281933 1.6728011521988799e+04 2.2684022617393355e+04 1.9523406946333472e-13 1.2433617916647525e+04 1.8553766870516105e+04 4.6896500194829720e+05 -999 3.12375133e-01 1.882361079e-01 -1.27011766e-01
 97 6 1281933 1.6178202817096859e+04 2.1024719603025285e+04 3.3289457464696687e-13 1.1835043137669110e+04 1.7432882369759489e+04 3.6569301941179158e+05 -999 3.11203308e-01 1.667749134e-01 -1.29182244e-01
 98 6 1281933 1.5667592462327591e+04 3.4449835248088762e+04 4.5479266746871828e-13 1.1383322492088100e+04 1.7488200811184113e+04 5.5372194335522864e+05 -999 3.08405206e-01 1.483610717e-01 -1.30790047e-01
 99 6 1281933 1.5488368254939141e+04 3.9871366389408373e+04 4.6381030947663971e-13 1.1159670689744811e+04 1.7654993197568303e+04 4.8543179172758770e+05 -999 3.07878626e-01 1.465054369e-01 -1.30843904e-01
 100 6 1281933 1.5394552835609875e+04 4.0375806754381920e+04 4.6850890884274903e-13 1.0987680144950058e+04 1.7475872759602978e+04 2.0216691911182806e+05 -999 3.07569070e-01 1.454899992e-01 -1.30860887e-01
 101 6 1281933 1.3829754953667090e+04 2.4355099607476350e+04 7.0609649083872590e-13 9.1266651088408744e+03 1.4341225254848208e+04 1.8231142824305597e+05 -999 3.02962651e-01 1.311979956e-01 -1.30759340e-01
 102 6 1281933 1.2779293621159770e+04 2.1019778511442706e+04 6.2746322801591109e-13 7.8903404090705944e+03 1.3134843656239414e+04 7.5462054609734245e+04 -999 3.00223080e-01 1.231056676e-01 -1.30131619e-01
 103 6 1281933 1.2232395695057530e+04 1.9226569660264988e+04 5.1410174854247525e-13 7.1260473658772307e+03 1.2443937325234163e+04 3.8585719366299847e+04 -999 2.99238375e-01 1.187417429e-01 -1.29729509e-01
 104 6 1281933 1.2145909964378237e+04 1.8007457496875544e+04 4.1878874200930726e-13 6.6011577660927060e+03 1.2178382673888615e+04 2.0129023653169756e+04 -999 2.98952196e-01 1.153188686e-01 -1.29486120e-01
 105 6 1281933 1.1883636265653789e+04 1.7545936208659557e+04 3.6866891857640316e-13 6.3749227723117410e+03 1.1925952973380492e+04 1.4617557552920369e+04 -999 2.99081151e-01 1.134507666e-01 -1.29409375e-01
 106 6 1281933 1.0309426844570789e+04 1.4899596154968194e+04 2.3055338944500672e-12 5.6287306812078359e+03 1.0224229123416795e+04 1.2910571010445274e+04 -999 3.02592487e-01 1.080492517e-01 -1.29941119e-01
 107 6 1281933 8.9589151384857887e+03 1.2492125857818810e+04 5.5869267078817412e-12 5.2979974433829002e+03 8.7125148246584395e+03 2.2149258577746496e+04 -999 3.12329294e-01 1.002017469e-01 -1.32214329e-01
 108 6 1281933 8.8987659995924550e+03 1.2770050454484377e+04 8.2358826319376843e-12 5.2455064147964931e+03 8.5896940321829661e+03 4.8491675072048325e+04 -999 3.28716957e-01 9.375399238e-02 -1.36890426e-01
 109 6 1281933 8.8505748568119252e+03 1.2438585770293330e+04 9.0292352930685703e-12 4.9617733421926459e+03 8.6245087378843346e+03 3.0951869931842914e+04 -999 3.39078427e-01 9.136491455e-02 -1.40101879e-01
 110 6 1281933 8.3753419188250155e+03 1.2102964078827630e+04 9.4187114508352367e-12 4.7327238102370429e+03 8.2605412283379374e+03 3.7215438769412620e+04 -999 3.50116193e-01 8.927405266e-02 -1.43560893e-01
 111 6 1281933 6.3427311840032880e+03 8.8359574704773895e+03 2.2171625909957278e-11 3.8082635413960907e+03 6.0055738597512927e+03 3.7669146778533737e+04 -999 3.73188277e-01 8.606291503e-02 -1.50650174e-01
 112 6 1281933 5.2246215023361228e+03 6.7080109200019378e+03 2.8831110406947351e-11 3.1191097746344590e+03 4.9614407688464407e+03 3.3847378601045304e+04 -999 4.04997136e-01 8.245304288e-02 -1.60321800e-01
 113 6 1281933 4.5954294769368971e+03 5.6686964005112495e+03 2.4607250626032064e-11 2.5949559156773175e+03 4.3916989936000555e+03 1.1913091601948378e+05 -999 4.49268234e-01 7.825889487e-02 -1.73126738e-01
 114 6 1281933 4.1997389732555921e+03 5.1502383927854062e+03 1.9071736630316117e-11 2.2085436516025743e+03 3.9964787760658965e+03 7.4019593212186170e+04 -999 4.89508284e-01 7.515232773e-02 -1.83534270e-01
 115 6 1281933 4.0930705565342651e+03 4.7178113366050984e+03 1.1793902185608089e-11 1.7583562148045826e+03 3.8985159591063748e+03 5.0118291075421119e+04 -999 5.44316200e-01 7.145833991e-02 -1.95723586e-01
 116 6 1281933 3.1861216604917072e+03 3.7296102410533340e+03 2.1513974173245297e-11 1.1663834778527223e+03 3.0085816500509441e+03 2.8930590971578142e+04 -999 6.11861898e-01 7.001811718e-02 -2.04014084e-01
 117 6 1281933 2.8338397564192560e+03 3.3056596659920251e+03 3.2036426878084149e-11 9.2397152649423060e+02 2.6582166383421995e+03 2.0443943668127875e+04 -999 6.63036408e-01 6.936159149e-02 -2.07432909e-01
 118 6 1281933 2.6739378870606747e+03 3.1216349968054678e+03 4.1560416192589526e-11 8.3606962735422928e+02 2.4987677026911692e+03 1.1876834109152671e+04 -999 6.91803538e-01 6.922020386e-02 -2.08081339e-01
 119 6 1281933 2.5925430558138692e+03 3.0163613158779253e+03 4.0202525835732637e-11 7.9858980807520049e+02 2.4142091405602550e+03 7.8411448765970754e+03 -999 7.10579683e-01 6.920551196e-02 -2.08049224e-01
 120 6 1281933 2.5414918186715681e+03 2.9457884032947163e+03 3.4626188306957805e-11 7.7290760202943591e+02 2.3612029458214147e+03 6.4280862853101535e+03 -999 7.24050355e-01 6.922752469e-02 -2.07815634e-01
 121 6 1281933 2.3753152289725404e+03 2.8661206734816215e+03 3.1100846887145680e-11 7.8505557491727859e+02 2.1981516461964356e+03 6.1738884642870362e+03 -999 7.49202505e-01 6.982900481e-02 -2.07760795e-01
 122 6 1281933 2.2911488783782506e+03 2.9446617661086016e+03 2.7349680097835095e-11 9.3184889167565677e+02 2.1210497975684211e+03 6.1046738138749424e+03 -999 7.75346735e-01 7.028890655e-02 -2.07455113e-01
 123 6 1281933 2.2441848963689099e+03 3.0374985412526157e+03 2.2497787761628822e-11 1.1352786261411884e+03 2.0760744220710999e+03 6.4612081586648183e+03 -999 8.03551565e-01 7.072907935e-02 -2.06589097e-01
 124 6 1281933 2.2260531155818953e+03 3.0887661812066713e+03 2.0540908991382632e-11 1.2374784849313319e+03 2.0600732259459410e+03 6.1942781337172146e+03 -999 8.20505028e-01 7.093833159e-02 -2.05744858e-01
 125 6 1281933 2.2658597982168981e+03 3.0983106866658118e+03 1.8493669918522888e-11 1.2773825693805752e+03 2.0876060720497730e+03 6.6393573522306833e+03 -999 8.37283175e-01 7.110641803e-02 -2.04711412e-01
 126 6 1281933 2.1913572393757727e+03 2.9729002742668958e+03 1.5898088701250044e-11 1.1881325916012138e+03 2.0186107076618448e+03 5.5637543130233662e+03 -999 8.45351593e-01 7.125194433e-02 -2.04383786e-01
 127 6 1281933 2.1297507446921600e+03 2.8061045848668823e+03 1.2973766985516621e-11 1.0825395431074155e+03 1.9598999496309884e+03 5.9085613840867654e+03 -999 8.55391752e-01 7.142082035e-02 -2.03879408e-01
 128 6 1281933 2.0827652538066550e+03 2.6060229279292998e+03 1.0036393566363864e-11 9.6442961298847820e+02 1.9104026134759642e+03 6.3656528756606394e+03 -999 8.67906664e-01 7.161428095e-02 -2.03133252e-01
 129 6 1281933 2.0703948778181302e+03 2.4917755206205638e+03 8.5399696685615022e-12 8.9017541796979390e+02 1.8907976459382487e+03 5.9893200590358820e+03 -999 8.77579197e-01 7.174704202e-02 -2.02473242e-01
 130 6 1281933 2.0617679809438669e+03 2.4172968112976141e+03 7.6373664250667332e-12 8.2601011776021494e+02 1.8768221645075323e+03 5.8617046980834548e+03 -999 8.86063584e-01 7.184765778e-02 -2.01856420e-01
 131 6 1281933 2.0225641254617410e+03 2.4022464093555977e+03 6.6968800721729443e-12 8.0166855229083092e+02 1.8393994510478026e+03 5.5513218497711778e+03 -999 8.92652052e-01 7.193256919e-02 -2.01477262e-01
 132 6 1281933 1.9980615582606217e+03 2.3860801357756231e+03 5.8852052443761943e-12 7.8551228914297553e+02 1.8123932012270041e+03 5.8893339290482791e+03 -999 9.00443920e-01 7.201646303e-02 -2.00960565e-01
 133 6 1281933 1.9740219855845653e+03 2.3583483093133996e+03 5.3513121202751356e-12 7.7389089330917955e+02 1.7864199642601945e+03 6.2696329702312159e+03 -999 9.09186337e-01 7.208188033e-02 -2.00291061e-01
 134 6 1281933 1.9767750956875745e+03 2.3348870514751834e+03 5.1819933351805728e-12 7.5427071765819164e+02 1.7806963555158204e+03 6.9462773167377236e+03 -999 9.19629151e-01 7.212072603e-02 -1.99438441e-01
 135 6 1281933 1.9895424758704448e+03 2.3133236908951653e+03 5.2775674082832540e-12 7.4319666114708116e+02 1.7858255130421037e+03 5.9785699274899216e+03 -999 9.24983826e-01 7.209311678e-02 -1.98932211e-01
 136 6 1281933 1.9422047782874959e+03 2.3230251019240231e+03 4.7147154804343469e-12 7.7473909435559710e+02 1.7422251585419874e+03 6.2315224408181084e+03 -999 9.31032173e-01 7.210686965e-02 -1.98616955e-01
 137 6 1281933 1.9069247033764739e+03 2.3225507056511524e+03 4.3990409796569965e-12 8.0235770864462359e+02 1.7077711587901802e+03 6.9305011004286780e+03 -999 9.38773430e-01 7.208992204e-02 -1.98040478e-01
 138 6 1281933 1.8903732845820630e+03 2.3075846437655036e+03 4.4456707829946473e-12 8.0398152047864539e+02 1.6864740265100024e+03 7.5641965521855718e+03 -999 9.47870557e-01 7.203122297e-02 -1.97314470e-01
 139 6 1281933 1.8928864182235727e+03 2.2994549846013765e+03 4.6779057721321517e-12 8.0650718612418859e+02 1.6829927245674787e+03 7.3454736267491207e+03 -999 9.55123196e-01 7.194753791e-02 -1.96760865e-01
 140 6 1281933 1.9061315225809442e+03 2.3068689563329417e+03 4.9506073620181424e-12 8.1155930846481544e+02 1.6912872174645265e+03 7.4428461831547065e+03 -999 9.61680474e-01 7.183970058e-02 -1.96268444e-01