TITLE = "005.01"

VARIABLES = "GRID_LEVEL"  "GRID_SIZE"  "GRID_FAC"  "MACH"  "REY"  "ALPHA"   "CL_TOT"    "CD_TOT"     "CM_TOT"     "CL_WING"     "CD_WING"     "CM_WING"     "CD_PR"      "CD_SF"      "CL_TAIL"    "CD_TAIL"    "CM_TAIL"    "CL_FUS"    "CD_FUS"     "CM_FUS"  "DELTAT"  "CTUSTART"  "CTUAVG"   "Q"

DATASETAUXDATA ParticipantID   = "005"
DATASETAUXDATA SubmissionDate  = "2025-04-17"
DATASETAUXDATA Name            = "Jeffrey Housman"
DATASETAUXDATA Email           = "jeffrey.a.housman@nasa.gov"
DATASETAUXDATA Institution     = "NASA Ames Research Center"
DATASETAUXDATA SolverName      = "LAVA Curvilinear Flow Solver"
DATASETAUXDATA BasicAlgorithm  = "LAVA-HRLES Model"
DATASETAUXDATA TurbulenceModel = "SAneg"
DATASETAUXDATA GridId          = "Multiblock/Overset"
DATASETAUXDATA Notes           = "Grid in is full-scale meters, Q is in SI units"

ZONE T="005.01 GRID LEVEL 1"
AUXDATA Tstatic         = "282.219 K"
AUXDATA Deltat          = "2.44682e-05 seconds"
AUXDATA GridFileName    = "grid_R1_00_A1_22.x, grid_R1_00_A2_29.x, grid_R1_00_A4_84.x, grid_R1_00_A5_89.x"
AUXDATA Misc            = "Different grid used for each alpha to match wing deflection"
1 129238665 3.912056e-06 0.85 1515000.0 1.22e+00 2.785246e-01 2.318425e-02 3.871627e-02 2.670350e-01 1.155543e-02 -8.369503e-02 7.826286e-03 1.535796e-02 -2.363244e-02 1.197577e-03 9.153128e-02 3.512206e-02 1.043124e-02 3.088002e-02 2.44682362e-05 80 1.20e+02 545.06
1 129238665 3.912056e-06 0.85 1515000.0 2.29e+00 4.269115e-01 2.755468e-02 -3.923345e-03 3.892296e-01 1.466775e-02 -1.160810e-01 1.234292e-02 1.521176e-02 -1.649306e-02 1.173559e-03 6.336035e-02 5.417492e-02 1.171337e-02 4.879729e-02 2.44682362e-05 80 1.20e+02 545.06
1 129238665 3.912056e-06 0.85 1515000.0 4.84e+00 6.812289e-01 6.218732e-02 -3.279784e-02 5.933741e-01 4.359455e-02 -1.502882e-01 4.798726e-02 1.420006e-02 -7.112126e-03 1.268951e-03 2.652898e-02 9.496688e-02 1.732383e-02 9.096133e-02 2.44682362e-05 80 5.46e+02 545.06
1 129238665 3.912056e-06 0.85 1515000.0 5.89e+00 7.558138e-01 8.274461e-02 -2.587387e-02 6.546078e-01 6.121531e-02 -1.653745e-01 6.894154e-02 1.380306e-02 -8.086206e-03 1.041165e-03 3.126073e-02 1.092923e-01 2.048813e-02 1.082399e-01 2.44682362e-05 80 5.81e+02 545.06

ZONE T="005.01 GRID LEVEL 2"
AUXDATA Tstatic         = "282.219 K"
AUXDATA Deltat          = "2.44682e-05 seconds"
AUXDATA GridFileName    = "grid_R1_40_A1_22.x, grid_R1_40_A2_29.x, grid_R1_40_A4_84.x, grid_R1_40_A5_89.x"
AUXDATA Misc            = "Different grid used for each alpha to match wing deflection"
2 346389024 2.027483e-06 0.85 1515000.0 1.22e+00 2.791883e-01 2.319434e-02 3.861381e-02 2.676629e-01 1.154025e-02 -8.408078e-02 7.698664e-03 1.549567e-02 -2.376693e-02 1.187670e-03 9.207888e-02 3.529232e-02 1.046642e-02 3.061572e-02 2.44682362e-05 80 1.20e+02 545.06
2 346389024 2.027483e-06 0.85 1515000.0 2.29e+00 4.269673e-01 2.754160e-02 -3.742077e-03 3.892858e-01 1.462179e-02 -1.160282e-01 1.219229e-02 1.534930e-02 -1.657655e-02 1.167025e-03 6.369912e-02 5.425804e-02 1.175278e-02 4.858699e-02 2.44682362e-05 80 1.20e+02 545.06
2 346389024 2.027483e-06 0.85 1515000.0 4.84e+00 6.797264e-01 6.191446e-02 -3.239397e-02 5.920910e-01 4.331389e-02 -1.501640e-01 4.755842e-02 1.435604e-02 -7.228885e-03 1.259857e-03 2.696236e-02 9.486424e-02 1.734072e-02 9.080766e-02 2.44682362e-05 80 4.95e+02 545.06
2 346389024 2.027483e-06 0.85 1515000.0 5.89e+00 7.653486e-01 8.317268e-02 -3.328980e-02 6.627092e-01 6.149096e-02 -1.692709e-01 6.919806e-02 1.397462e-02 -7.334424e-03 1.118599e-03 2.811658e-02 1.099738e-01 2.056313e-02 1.078645e-01 2.44682362e-05 80 5.07e+02 545.06

ZONE T="005.01 GRID LEVEL 3"
AUXDATA Tstatic         = "282.219 K"
AUXDATA Deltat          = "2.44682e-05 seconds"
AUXDATA GridFileName    = "grid_R2_00_A1_22.x, grid_R2_00_A2_29.x, grid_R2_00_A4_84.x, grid_R2_00_A5_89.x"
AUXDATA Misc            = "Different grid used for each alpha to match wing deflection"
3 1010787717 9.928722e-07 0.85 1515000.0 1.22e+00 2.797877e-01 2.316416e-02 3.807632e-02 2.681416e-01 1.150961e-02 -8.442958e-02 7.608827e-03 1.555533e-02 -2.377838e-02 1.178898e-03 9.213289e-02 3.542444e-02 1.047565e-02 3.037302e-02 2.44682362e-05 80 1.20e+02 545.06
3 1010787717 9.928722e-07 0.85 1515000.0 2.29e+00 4.274123e-01 2.752371e-02 -3.964124e-03 3.896949e-01 1.459996e-02 -1.163682e-01 1.211337e-02 1.541035e-02 -1.666319e-02 1.156888e-03 6.404603e-02 5.438059e-02 1.176687e-02 4.835802e-02 2.44682362e-05 80 1.20e+02 545.06
3 1010787717 9.928722e-07 0.85 1515000.0 4.84e+00 6.777799e-01 6.142752e-02 -3.444483e-02 5.901057e-01 4.285777e-02 -1.504508e-01 4.702652e-02 1.440100e-02 -6.875518e-03 1.280842e-03 2.555531e-02 9.454975e-02 1.728890e-02 9.045069e-02 2.44682362e-05 80 2.95e+02 545.06
3 1010787717 9.928722e-07 0.85 1515000.0 5.89e+00 7.696600e-01 8.317342e-02 -4.029765e-02 6.655683e-01 6.139079e-02 -1.701961e-01 6.915283e-02 1.402058e-02 -5.977824e-03 1.252139e-03 2.253883e-02 1.100695e-01 2.053049e-02 1.073596e-01 2.44682362e-05 80 3.20e+02 545.06

ZONE T="005.01 ALPHA - 1.22"
AUXDATA Tstatic         = "282.219 K"
AUXDATA Deltat          = "2.44682e-05 seconds"
AUXDATA GridFileName    = "grid_R1_00_A1_22.x, grid_R1_00_A2_29.x, grid_R1_00_A4_84.x, grid_R1_00_A5_89.x"
AUXDATA Misc            = "Different grid used for each alpha to match wing deflection"
1 129238665 3.912056e-06 0.85 1515000.0 1.22e+00 2.785246e-01 2.318425e-02 3.871627e-02 2.670350e-01 1.155543e-02 -8.369503e-02 7.826286e-03 1.535796e-02 -2.363244e-02 1.197577e-03 9.153128e-02 3.512206e-02 1.043124e-02 3.088002e-02 2.44682362e-05 80 1.20e+02 545.06
2 346389024 2.027483e-06 0.85 1515000.0 1.22e+00 2.791883e-01 2.319434e-02 3.861381e-02 2.676629e-01 1.154025e-02 -8.408078e-02 7.698664e-03 1.549567e-02 -2.376693e-02 1.187670e-03 9.207888e-02 3.529232e-02 1.046642e-02 3.061572e-02 2.44682362e-05 80 1.20e+02 545.06
3 1010787717 9.928722e-07 0.85 1515000.0 1.22e+00 2.797877e-01 2.316416e-02 3.807632e-02 2.681416e-01 1.150961e-02 -8.442958e-02 7.608827e-03 1.555533e-02 -2.377838e-02 1.178898e-03 9.213289e-02 3.542444e-02 1.047565e-02 3.037302e-02 2.44682362e-05 80 1.20e+02 545.06

ZONE T="005.01 ALPHA - 2.29"
AUXDATA Tstatic         = "282.219 K"
AUXDATA Deltat          = "2.44682e-05 seconds"
AUXDATA GridFileName    = "grid_R1_00_A1_22.x, grid_R1_00_A2_29.x, grid_R1_00_A4_84.x, grid_R1_00_A5_89.x"
AUXDATA Misc            = "Different grid used for each alpha to match wing deflection"
1 129238665 3.912056e-06 0.85 1515000.0 2.29e+00 4.269115e-01 2.755468e-02 -3.923345e-03 3.892296e-01 1.466775e-02 -1.160810e-01 1.234292e-02 1.521176e-02 -1.649306e-02 1.173559e-03 6.336035e-02 5.417492e-02 1.171337e-02 4.879729e-02 2.44682362e-05 80 1.20e+02 545.06
2 346389024 2.027483e-06 0.85 1515000.0 2.29e+00 4.269673e-01 2.754160e-02 -3.742077e-03 3.892858e-01 1.462179e-02 -1.160282e-01 1.219229e-02 1.534930e-02 -1.657655e-02 1.167025e-03 6.369912e-02 5.425804e-02 1.175278e-02 4.858699e-02 2.44682362e-05 80 1.20e+02 545.06
3 1010787717 9.928722e-07 0.85 1515000.0 2.29e+00 4.274123e-01 2.752371e-02 -3.964124e-03 3.896949e-01 1.459996e-02 -1.163682e-01 1.211337e-02 1.541035e-02 -1.666319e-02 1.156888e-03 6.404603e-02 5.438059e-02 1.176687e-02 4.835802e-02 2.44682362e-05 80 1.20e+02 545.06

ZONE T="005.01 ALPHA - 4.84"
AUXDATA Tstatic         = "282.219 K"
AUXDATA Deltat          = "2.44682e-05 seconds"
AUXDATA GridFileName    = "grid_R1_00_A1_22.x, grid_R1_00_A2_29.x, grid_R1_00_A4_84.x, grid_R1_00_A5_89.x"
AUXDATA Misc            = "Different grid used for each alpha to match wing deflection"
1 129238665 3.912056e-06 0.85 1515000.0 4.84e+00 6.812289e-01 6.218732e-02 -3.279784e-02 5.933741e-01 4.359455e-02 -1.502882e-01 4.798726e-02 1.420006e-02 -7.112126e-03 1.268951e-03 2.652898e-02 9.496688e-02 1.732383e-02 9.096133e-02 2.44682362e-05 80 5.46e+02 545.06
2 346389024 2.027483e-06 0.85 1515000.0 4.84e+00 6.797264e-01 6.191446e-02 -3.239397e-02 5.920910e-01 4.331389e-02 -1.501640e-01 4.755842e-02 1.435604e-02 -7.228885e-03 1.259857e-03 2.696236e-02 9.486424e-02 1.734072e-02 9.080766e-02 2.44682362e-05 80 4.95e+02 545.06
3 1010787717 9.928722e-07 0.85 1515000.0 4.84e+00 6.777799e-01 6.142752e-02 -3.444483e-02 5.901057e-01 4.285777e-02 -1.504508e-01 4.702652e-02 1.440100e-02 -6.875518e-03 1.280842e-03 2.555531e-02 9.454975e-02 1.728890e-02 9.045069e-02 2.44682362e-05 80 2.95e+02 545.06

ZONE T="005.01 ALPHA - 5.89"
AUXDATA Tstatic         = "282.219 K"
AUXDATA Deltat          = "2.44682e-05 seconds"
AUXDATA GridFileName    = "grid_R1_00_A1_22.x, grid_R1_00_A2_29.x, grid_R1_00_A4_84.x, grid_R1_00_A5_89.x"
AUXDATA Misc            = "Different grid used for each alpha to match wing deflection"
1 129238665 3.912056e-06 0.85 1515000.0 5.89e+00 7.558138e-01 8.274461e-02 -2.587387e-02 6.546078e-01 6.121531e-02 -1.653745e-01 6.894154e-02 1.380306e-02 -8.086206e-03 1.041165e-03 3.126073e-02 1.092923e-01 2.048813e-02 1.082399e-01 2.44682362e-05 80 5.81e+02 545.06
2 346389024 2.027483e-06 0.85 1515000.0 5.89e+00 7.653486e-01 8.317268e-02 -3.328980e-02 6.627092e-01 6.149096e-02 -1.692709e-01 6.919806e-02 1.397462e-02 -7.334424e-03 1.118599e-03 2.811658e-02 1.099738e-01 2.056313e-02 1.078645e-01 2.44682362e-05 80 5.07e+02 545.06
3 1010787717 9.928722e-07 0.85 1515000.0 5.89e+00 7.696600e-01 8.317342e-02 -4.029765e-02 6.655683e-01 6.139079e-02 -1.701961e-01 6.915283e-02 1.402058e-02 -5.977824e-03 1.252139e-03 2.253883e-02 1.100695e-01 2.053049e-02 1.073596e-01 2.44682362e-05 80 3.20e+02 545.06
