TITLE     = "TAU_SAneg1st_DLR_c"
VARIABLES = "mach"
"alpha"
"re_lambda"
ZONE T="Contour line: C=0eom"
 STRANDID=0, SOLUTIONTIME=0
 Nodes=24, Elements=23, ZONETYPE=FELineSeg
 DATAPACKING=POINT
 DT=(SINGLE SINGLE SINGLE )
 7.099999785E-01 4.322329521E+00 0.000000000E+00
 7.200000286E-01 4.327341080E+00 0.000000000E+00
 7.075771689E-01 4.400000095E+00 0.000000000E+00
 6.999999881E-01 4.586709499E+00 0.000000000E+00
 7.206553817E-01 4.400000095E+00 4.336808690E-19
 6.996666789E-01 4.599999905E+00 0.000000000E+00
 7.203379273E-01 4.599999905E+00 0.000000000E+00
 6.939435005E-01 4.800000191E+00 0.000000000E+00
 6.899999976E-01 4.898903370E+00 0.000000000E+00
 7.202275395E-01 4.800000191E+00 -2.059984128E-18
 7.200000286E-01 4.831259727E+00 0.000000000E+00
 6.871815920E-01 5.000000000E+00 0.000000000E+00
 7.185250521E-01 5.000000000E+00 0.000000000E+00
 6.803504229E-01 5.199999809E+00 0.000000000E+00
 6.800000072E-01 5.208816528E+00 0.000000000E+00
 7.178214192E-01 5.199999809E+00 3.469446952E-18
 6.736503839E-01 5.400000095E+00 0.000000000E+00
 6.700000167E-01 5.495015621E+00 0.000000000E+00
 7.174208760E-01 5.400000095E+00 -3.469446952E-18
 6.665428877E-01 5.599999905E+00 0.000000000E+00
 6.600000262E-01 5.754055500E+00 0.000000000E+00
 7.157559395E-01 5.599999905E+00 3.469446952E-18
 7.152195573E-01 5.800000191E+00 -3.469446952E-18
 7.139273286E-01 6.000000000E+00 -1.734723476E-18
 21 20
 20 18
 18 17
 17 15
 15 14
 14 12
 12 9
 9 8
 8 6
 6 4
 4 3
 3 1
 1 2
 2 5
 5 7
 7 10
 10 11
 11 13
 13 16
 16 19
 19 22
 22 23
 23 24
