TITLE     = "TAU_SAneg2nd_CC_DLR_c"
VARIABLES = "mach"
"alpha"
"re_lambda"
ZONE T="Contour line: C=0eom"
 STRANDID=0, SOLUTIONTIME=0
 Nodes=39, Elements=40, ZONETYPE=FELineSeg
 DATAPACKING=POINT
 DT=(SINGLE SINGLE SINGLE )
 7.400000095E-01 2.877769232E+00 0.000000000E+00
 7.367658615E-01 3.000000000E+00 0.000000000E+00
 7.300000191E-01 3.128685474E+00 -3.469446952E-18
 7.436403036E-01 3.000000000E+00 -1.734723476E-18
 7.283191085E-01 3.200000048E+00 0.000000000E+00
 7.455846667E-01 3.200000048E+00 0.000000000E+00
 7.232758999E-01 3.400000095E+00 0.000000000E+00
 7.200000286E-01 3.485831738E+00 3.469446952E-18
 7.452008724E-01 3.400000095E+00 3.469446952E-18
 7.169595957E-01 3.599999905E+00 0.000000000E+00
 7.448069453E-01 3.599999905E+00 0.000000000E+00
 7.114142776E-01 3.799999952E+00 -1.734723476E-18
 7.099999785E-01 3.839724302E+00 -1.734723476E-18
 7.448943853E-01 3.799999952E+00 0.000000000E+00
 7.058307528E-01 4.000000000E+00 -6.938893904E-18
 7.437546849E-01 4.000000000E+00 -3.469446952E-18
 7.000601888E-01 4.199999809E+00 7.589415207E-19
 6.999999881E-01 4.201783180E+00 2.114194236E-18
 7.428536415E-01 4.199999809E+00 -3.469446952E-18
 6.947608590E-01 4.400000095E+00 0.000000000E+00
 6.899999976E-01 4.552804470E+00 0.000000000E+00
 7.426148057E-01 4.400000095E+00 -3.469446952E-18
 6.882457137E-01 4.599999905E+00 0.000000000E+00
 7.421573997E-01 4.599999905E+00 3.469446952E-18
 6.826854944E-01 4.800000191E+00 -3.469446952E-18
 6.800000072E-01 4.879772663E+00 3.469446952E-18
 7.414362431E-01 4.800000191E+00 -3.469446952E-18
 6.760492921E-01 5.000000000E+00 0.000000000E+00
 6.700000167E-01 5.170681477E+00 0.000000000E+00
 7.412201166E-01 5.000000000E+00 0.000000000E+00
 6.686733365E-01 5.199999809E+00 0.000000000E+00
 7.405957580E-01 5.199999809E+00 -1.734723476E-18
 7.400000095E-01 5.389138222E+00 0.000000000E+00
 6.613535881E-01 5.400000095E+00 -1.734723476E-18
 6.600000262E-01 5.432174683E+00 1.734723476E-18
 7.399592400E-01 5.400000095E+00 0.000000000E+00
 7.398994565E-01 5.599999905E+00 0.000000000E+00
 7.398660779E-01 5.800000191E+00 0.000000000E+00
 7.398220301E-01 6.000000000E+00 0.000000000E+00
 2 3
 3 5
 5 7
 7 8
 8 10
 10 12
 12 13
 13 15
 15 17
 17 18
 18 20
 20 21
 21 23
 23 25
 25 26
 26 28
 28 29
 29 31
 31 34
 34 35
 4 6
 6 9
 9 11
 11 14
 14 16
 16 19
 19 22
 22 24
 24 27
 27 30
 30 32
 32 33
 33 36
 36 37
 37 38
 38 39
 1 2
 2 1
 1 4
 4 1
