TITLE     = "TAU_SAneg2nd_DPW8_L3"
VARIABLES = "mach"
"alpha"
"re_lambda"
ZONE T="Contour line: C=0eom"
 STRANDID=0, SOLUTIONTIME=0
 Nodes=25, Elements=24, ZONETYPE=FELineSeg
 DATAPACKING=POINT
 DT=(SINGLE SINGLE SINGLE )
 7.099999785E-01 4.333188057E+00 0.000000000E+00
 7.070460320E-01 4.400000095E+00 0.000000000E+00
 7.182816863E-01 4.400000095E+00 0.000000000E+00
 7.200000286E-01 4.556883335E+00 0.000000000E+00
 7.059946656E-01 4.599999905E+00 0.000000000E+00
 6.999999881E-01 4.736288071E+00 0.000000000E+00
 7.201845050E-01 4.599999905E+00 -1.084202172E-19
 6.975940466E-01 4.800000191E+00 0.000000000E+00
 7.203514576E-01 4.800000191E+00 2.168404345E-19
 6.924278140E-01 5.000000000E+00 0.000000000E+00
 6.899999976E-01 5.059565544E+00 0.000000000E+00
 7.200553417E-01 5.000000000E+00 9.757819552E-19
 7.200000286E-01 5.016658306E+00 -5.421010862E-20
 6.846135259E-01 5.199999809E+00 0.000000000E+00
 6.800000072E-01 5.334590435E+00 0.000000000E+00
 7.191567421E-01 5.199999809E+00 0.000000000E+00
 6.773921847E-01 5.400000095E+00 -3.469446952E-18
 7.184702754E-01 5.400000095E+00 0.000000000E+00
 6.709462404E-01 5.599999905E+00 0.000000000E+00
 6.700000167E-01 5.625151157E+00 0.000000000E+00
 7.174938917E-01 5.599999905E+00 0.000000000E+00
 6.636474729E-01 5.800000191E+00 0.000000000E+00
 6.600000262E-01 5.887556553E+00 0.000000000E+00
 7.175608873E-01 5.800000191E+00 0.000000000E+00
 7.163932323E-01 6.000000000E+00 0.000000000E+00
 23 22
 22 20
 20 19
 19 17
 17 15
 15 14
 14 11
 11 10
 10 8
 8 6
 6 5
 5 2
 2 1
 1 3
 3 4
 4 7
 7 9
 9 12
 12 13
 13 16
 16 18
 18 21
 21 24
 24 25
