TITLE = "005.07"

VARIABLES = "X" "Y" "Z" "X/C" "CP_AVG" "CP_RMS" "CF_AVG" "CF_RMS"

DATASETAUXDATA ParticipantID   = "005"
DATASETAUXDATA SubmissionDate  = "01-11-2025"
DATASETAUXDATA Name            = "Jeffrey A. Housman"
DATASETAUXDATA Email           = "jeffrey.a.housman@nasa.gov"
DATASETAUXDATA Institution     = "NASA Ames Research Center"
DATASETAUXDATA SolverName      = "LAVA Curvilinear"
DATASETAUXDATA BasicAlgorithm  = "ZDES Mode 2 (2020)"
DATASETAUXDATA TurbulenceModel = "SAneg"
DATASETAUXDATA GridId          = "Multiblock"
DATASETAUXDATA Notes           = "Upwind/Centered Blending Method 2"

ZONE T = "005.07 - ALPHA 1.36 - GRID 1 - Wing Section 1"
AUXDATA GridLevel       = "1"
AUXDATA Mach            = "0.73"
AUXDATA Re              = "3.0e+6"
AUXDATA Alpha           = "1.3600e+00"
AUXDATA Tstatic         = "271.0"
AUXDATA CLtotal         = "1.85870153e-01"
AUXDATA Eta             = "0.000"
AUXDATA Deltat          = "9.5456895063539926e-7"
AUXDATA CtuStart        = "80"
AUXDATA CtuAvg          = "120"
AUXDATA GridFileName    = "ONERA-Deck_Grids.REV00"
AUXDATA Misc            = "Grid Extruded 0.1 chord with 145 points in span"
2.3000e-01 1.1500e-02 -5.7430e-04 1.0000e+00 1.01210263e-01 7.48331459e-02 999 999
2.2954e-01 1.1500e-02 -5.2166e-04 9.9801e-01 8.41130532e-02 6.48168326e-02 999 999
2.2909e-01 1.1500e-02 -4.6999e-04 9.9602e-01 1.32294125e-01 3.62101077e-02 999 999
2.2863e-01 1.1500e-02 -4.1920e-04 9.9403e-01 1.60335334e-01 2.76310653e-02 999 999
2.2817e-01 1.1500e-02 -3.6926e-04 9.9204e-01 1.78902549e-01 2.14363402e-02 999 999
2.2771e-01 1.1500e-02 -3.2016e-04 9.9004e-01 1.91488757e-01 1.75757400e-02 999 999
2.2725e-01 1.1500e-02 -2.7185e-04 9.8805e-01 2.03478285e-01 1.55850248e-02 999 999
2.2679e-01 1.1500e-02 -2.2431e-04 9.8605e-01 2.12657155e-01 1.28158712e-02 999 999
2.2633e-01 1.1500e-02 -1.7752e-04 9.8405e-01 2.21440771e-01 1.21851312e-02 999 999
2.2587e-01 1.1500e-02 -1.3145e-04 9.8204e-01 2.29216692e-01 9.94465265e-03 999 999
2.2541e-01 1.1500e-02 -8.6103e-05 9.8004e-01 2.36200147e-01 9.89420531e-03 999 999
2.2495e-01 1.1500e-02 -4.1469e-05 9.7803e-01 2.43037307e-01 8.05304888e-03 999 999
2.2449e-01 1.1500e-02 2.4490e-06 9.7602e-01 2.48956134e-01 8.12051830e-03 999 999
2.2402e-01 1.1500e-02 4.5650e-05 9.7401e-01 2.55078796e-01 6.64201702e-03 999 999
2.2356e-01 1.1500e-02 8.8135e-05 9.7200e-01 2.60221894e-01 6.74220014e-03 999 999
2.2310e-01 1.1500e-02 1.2990e-04 9.6999e-01 2.65783790e-01 5.55022396e-03 999 999
2.2263e-01 1.1500e-02 1.7096e-04 9.6797e-01 2.72936513e-01 5.76284573e-03 999 999
2.2217e-01 1.1500e-02 2.1129e-04 9.6595e-01 2.79621225e-01 4.70882744e-03 999 999
2.2170e-01 1.1500e-02 2.5091e-04 9.6393e-01 2.84244266e-01 3.98849662e-03 999 999
2.2124e-01 1.1500e-02 2.8982e-04 9.6191e-01 2.88135666e-01 3.94049462e-03 999 999
2.2077e-01 1.1500e-02 3.2801e-04 9.5989e-01 2.92354741e-01 3.39791893e-03 999 999
2.2031e-01 1.1500e-02 3.6549e-04 9.5786e-01 2.96021454e-01 3.30340749e-03 999 999
2.1984e-01 1.1500e-02 4.0225e-04 9.5583e-01 2.99894081e-01 2.90148879e-03 999 999
2.1938e-01 1.1500e-02 4.3830e-04 9.5381e-01 3.03372466e-01 2.78232578e-03 999 999
2.1891e-01 1.1500e-02 4.7364e-04 9.5178e-01 3.06963680e-01 2.47854133e-03 999 999
2.1844e-01 1.1500e-02 5.0826e-04 9.4974e-01 3.10274459e-01 2.35088105e-03 999 999
2.1797e-01 1.1500e-02 5.4215e-04 9.4771e-01 3.13625267e-01 2.11735366e-03 999 999
2.1750e-01 1.1500e-02 5.7531e-04 9.4567e-01 3.16767345e-01 1.99706176e-03 999 999
2.1704e-01 1.1500e-02 6.0773e-04 9.4364e-01 3.19906401e-01 1.81161102e-03 999 999
2.1657e-01 1.1500e-02 6.3939e-04 9.4160e-01 3.22881829e-01 1.70275549e-03 999 999
2.1610e-01 1.1500e-02 6.7029e-04 9.3956e-01 3.25828877e-01 1.55168628e-03 999 999
2.1563e-01 1.1500e-02 7.0041e-04 9.3751e-01 3.28644104e-01 1.45753407e-03 999 999
2.1516e-01 1.1500e-02 7.2975e-04 9.3547e-01 3.31415119e-01 1.33551569e-03 999 999
2.1469e-01 1.1500e-02 7.5829e-04 9.3342e-01 3.34076037e-01 1.25421411e-03 999 999
2.1422e-01 1.1500e-02 7.8603e-04 9.3138e-01 3.36683198e-01 1.15139353e-03 999 999
2.1375e-01 1.1500e-02 8.1295e-04 9.2933e-01 3.39195862e-01 1.08219887e-03 999 999
2.1327e-01 1.1500e-02 8.3905e-04 9.2728e-01 3.41649550e-01 9.96029226e-04 999 999
2.1280e-01 1.1500e-02 8.6431e-04 9.2522e-01 3.44020384e-01 9.38564502e-04 999 999
2.1233e-01 1.1500e-02 8.8873e-04 9.2317e-01 3.46329936e-01 8.64481238e-04 999 999
2.1186e-01 1.1500e-02 9.1229e-04 9.2112e-01 3.48565404e-01 8.13122180e-04 999 999
2.1138e-01 1.1500e-02 9.3499e-04 9.1906e-01 3.50739109e-01 7.50235309e-04 999 999
2.1091e-01 1.1500e-02 9.5681e-04 9.1700e-01 3.52846088e-01 7.06795862e-04 999 999
2.1044e-01 1.1500e-02 9.7774e-04 9.1494e-01 3.54891585e-01 6.53587046e-04 999 999
2.0996e-01 1.1500e-02 9.9778e-04 9.1288e-01 3.56873528e-01 6.14708001e-04 999 999
2.0949e-01 1.1500e-02 1.0169e-03 9.1081e-01 3.58790986e-01 5.67611379e-04 999 999
2.0901e-01 1.1500e-02 1.0351e-03 9.0875e-01 3.60645260e-01 5.33584177e-04 999 999
2.0854e-01 1.1500e-02 1.0523e-03 9.0668e-01 3.62433092e-01 4.93337274e-04 999 999
2.0806e-01 1.1500e-02 1.0686e-03 9.0462e-01 3.64158058e-01 4.64102436e-04 999 999
2.0759e-01 1.1500e-02 1.0839e-03 9.0255e-01 3.65815878e-01 4.28319359e-04 999 999
2.0711e-01 1.1500e-02 1.0982e-03 9.0048e-01 3.67410187e-01 4.01526922e-04 999 999
2.0663e-01 1.1500e-02 1.1115e-03 8.9840e-01 3.68936398e-01 3.71348468e-04 999 999
2.0616e-01 1.1500e-02 1.1238e-03 8.9633e-01 3.70397021e-01 3.47530495e-04 999 999
2.0568e-01 1.1500e-02 1.1350e-03 8.9425e-01 3.71789451e-01 3.22679703e-04 999 999
2.0520e-01 1.1500e-02 1.1452e-03 8.9218e-01 3.73116433e-01 3.01247582e-04 999 999
2.0472e-01 1.1500e-02 1.1543e-03 8.9010e-01 3.74377659e-01 2.77869612e-04 999 999
2.0424e-01 1.1500e-02 1.1624e-03 8.8802e-01 3.75572342e-01 2.61807451e-04 999 999
2.0377e-01 1.1500e-02 1.1693e-03 8.8594e-01 3.76703832e-01 2.39084011e-04 999 999
2.0329e-01 1.1500e-02 1.1752e-03 8.8386e-01 3.77766292e-01 2.28277143e-04 999 999
2.0281e-01 1.1500e-02 1.1799e-03 8.8178e-01 3.78768553e-01 2.08431160e-04 999 999
2.0233e-01 1.1500e-02 1.1835e-03 8.7969e-01 3.79698835e-01 1.95437782e-04 999 999
2.0185e-01 1.1500e-02 1.1859e-03 8.7761e-01 3.80571073e-01 1.85435947e-04 999 999
2.0137e-01 1.1500e-02 1.1872e-03 8.7552e-01 3.81368912e-01 1.66563013e-04 999 999
2.0089e-01 1.1500e-02 1.1874e-03 8.7343e-01 3.82109791e-01 1.64884991e-04 999 999
2.0041e-01 1.1500e-02 1.1863e-03 8.7134e-01 3.82773706e-01 1.48064232e-04 999 999
1.9993e-01 1.1500e-02 1.1841e-03 8.6925e-01 3.83382108e-01 1.40749613e-04 999 999
1.9945e-01 1.1500e-02 1.1807e-03 8.6716e-01 3.83908891e-01 1.38795260e-04 999 999
1.9897e-01 1.1500e-02 1.1761e-03 8.6507e-01 3.84382968e-01 1.20053843e-04 999 999
1.9848e-01 1.1500e-02 1.1702e-03 8.6297e-01 3.84768517e-01 1.27713290e-04 999 999
1.9800e-01 1.1500e-02 1.1631e-03 8.6088e-01 3.85106324e-01 1.11676096e-04 999 999
1.9752e-01 1.1500e-02 1.1548e-03 8.5878e-01 3.85355402e-01 1.11167895e-04 999 999
1.9704e-01 1.1500e-02 1.1452e-03 8.5668e-01 3.85558500e-01 1.07836289e-04 999 999
1.9655e-01 1.1500e-02 1.1344e-03 8.5459e-01 3.85679211e-01 9.98373390e-05 999 999
1.9607e-01 1.1500e-02 1.1223e-03 8.5249e-01 3.85750774e-01 1.00101539e-04 999 999
1.9559e-01 1.1500e-02 1.1090e-03 8.5039e-01 3.85750618e-01 9.36245117e-05 999 999
1.9511e-01 1.1500e-02 1.0944e-03 8.4828e-01 3.85677788e-01 9.10861973e-05 999 999
1.9462e-01 1.1500e-02 1.0786e-03 8.4618e-01 3.85554544e-01 8.80468289e-05 999 999
1.9414e-01 1.1500e-02 1.0615e-03 8.4408e-01 3.85353652e-01 8.66265175e-05 999 999
1.9365e-01 1.1500e-02 1.0431e-03 8.4197e-01 3.85097136e-01 8.36456967e-05 999 999
1.9317e-01 1.1500e-02 1.0235e-03 8.3987e-01 3.84763618e-01 8.27538420e-05 999 999
1.9269e-01 1.1500e-02 1.0026e-03 8.3776e-01 3.84371170e-01 8.00776450e-05 999 999
1.9220e-01 1.1500e-02 9.8044e-04 8.3566e-01 3.83908178e-01 7.94877000e-05 999 999
1.9172e-01 1.1500e-02 9.5701e-04 8.3355e-01 3.83384909e-01 7.72493204e-05 999 999
1.9123e-01 1.1500e-02 9.3231e-04 8.3144e-01 3.82796827e-01 7.67856003e-05 999 999
1.9075e-01 1.1500e-02 9.0636e-04 8.2933e-01 3.82146752e-01 7.49730639e-05 999 999
1.9026e-01 1.1500e-02 8.7916e-04 8.2722e-01 3.81435861e-01 7.45023396e-05 999 999
1.8978e-01 1.1500e-02 8.5072e-04 8.2511e-01 3.80661483e-01 7.31210073e-05 999 999
1.8929e-01 1.1500e-02 8.2103e-04 8.2300e-01 3.79828809e-01 7.26987522e-05 999 999
1.8880e-01 1.1500e-02 7.9012e-04 8.2089e-01 3.78931818e-01 7.18501680e-05 999 999
1.8832e-01 1.1500e-02 7.5797e-04 8.1878e-01 3.77977689e-01 7.13416262e-05 999 999
1.8783e-01 1.1500e-02 7.2461e-04 8.1666e-01 3.76958212e-01 7.08522766e-05 999 999
1.8735e-01 1.1500e-02 6.9003e-04 8.1455e-01 3.75882373e-01 7.02546634e-05 999 999
1.8686e-01 1.1500e-02 6.5426e-04 8.1243e-01 3.74743307e-01 7.01756612e-05 999 999
1.8637e-01 1.1500e-02 6.1729e-04 8.1032e-01 3.73550399e-01 6.96423735e-05 999 999
1.8589e-01 1.1500e-02 5.7915e-04 8.0820e-01 3.72295960e-01 6.97695567e-05 999 999
1.8540e-01 1.1500e-02 5.3984e-04 8.0609e-01 3.70988193e-01 6.92350623e-05 999 999
1.8491e-01 1.1500e-02 4.9938e-04 8.0397e-01 3.69619523e-01 6.94470748e-05 999 999
1.8443e-01 1.1500e-02 4.5777e-04 8.0185e-01 3.68196955e-01 6.90483329e-05 999 999
1.8394e-01 1.1500e-02 4.1504e-04 7.9973e-01 3.66714965e-01 6.93065546e-05 999 999
1.8345e-01 1.1500e-02 3.7118e-04 7.9762e-01 3.65180568e-01 6.89885201e-05 999 999
1.8296e-01 1.1500e-02 3.2623e-04 7.9550e-01 3.63588961e-01 6.92092840e-05 999 999
1.8248e-01 1.1500e-02 2.8020e-04 7.9338e-01 3.61946168e-01 6.89830369e-05 999 999
1.8199e-01 1.1500e-02 2.3310e-04 7.9126e-01 3.60248468e-01 6.92102211e-05 999 999
1.8150e-01 1.1500e-02 1.8495e-04 7.8914e-01 3.58501713e-01 6.90632286e-05 999 999
1.8101e-01 1.1500e-02 1.3577e-04 7.8702e-01 3.56701801e-01 6.92702697e-05 999 999
1.8053e-01 1.1500e-02 8.5579e-05 7.8490e-01 3.54853808e-01 6.91362950e-05 999 999
1.8004e-01 1.1500e-02 3.4386e-05 7.8277e-01 3.52953983e-01 6.93605380e-05 999 999
1.7955e-01 1.1500e-02 -1.7792e-05 7.8065e-01 3.51006283e-01 6.92358772e-05 999 999
1.7906e-01 1.1500e-02 -7.0938e-05 7.7853e-01 3.49006696e-01 6.94414302e-05 999 999
1.7857e-01 1.1500e-02 -1.2504e-04 7.7641e-01 3.46959071e-01 6.93428039e-05 999 999
1.7808e-01 1.1500e-02 -1.8006e-04 7.7428e-01 3.44861881e-01 6.95200057e-05 999 999
1.7760e-01 1.1500e-02 -2.3601e-04 7.7216e-01 3.42718544e-01 6.94848935e-05 999 999
1.7711e-01 1.1500e-02 -2.9285e-04 7.7003e-01 3.40527254e-01 6.96272261e-05 999 999
1.7662e-01 1.1500e-02 -3.5056e-04 7.6791e-01 3.38291553e-01 6.96412596e-05 999 999
1.7613e-01 1.1500e-02 -4.0913e-04 7.6579e-01 3.36009949e-01 6.97642829e-05 999 999
1.7564e-01 1.1500e-02 -4.6853e-04 7.6366e-01 3.33684922e-01 6.98151139e-05 999 999
1.7515e-01 1.1500e-02 -5.2875e-04 7.6153e-01 3.31315730e-01 6.99301315e-05 999 999
1.7466e-01 1.1500e-02 -5.8977e-04 7.5941e-01 3.28905067e-01 6.99992454e-05 999 999
1.7417e-01 1.1500e-02 -6.5156e-04 7.5728e-01 3.26452229e-01 7.01130427e-05 999 999
1.7369e-01 1.1500e-02 -7.1411e-04 7.5516e-01 3.23959347e-01 7.01968582e-05 999 999
1.7320e-01 1.1500e-02 -7.7740e-04 7.5303e-01 3.21426305e-01 7.03152671e-05 999 999
1.7271e-01 1.1500e-02 -8.4141e-04 7.5090e-01 3.18854745e-01 7.04110963e-05 999 999
1.7222e-01 1.1500e-02 -9.0611e-04 7.4877e-01 3.16244328e-01 7.05363494e-05 999 999
1.7173e-01 1.1500e-02 -9.7150e-04 7.4665e-01 3.13596844e-01 7.06416369e-05 999 999
1.7124e-01 1.1500e-02 -1.0375e-03 7.4452e-01 3.10911117e-01 7.07737447e-05 999 999
1.7075e-01 1.1500e-02 -1.1042e-03 7.4239e-01 3.08189750e-01 7.08868419e-05 999 999
1.7026e-01 1.1500e-02 -1.1716e-03 7.4026e-01 3.05431955e-01 7.10260618e-05 999 999
1.6977e-01 1.1500e-02 -1.2395e-03 7.3813e-01 3.02639647e-01 7.11456563e-05 999 999
1.6928e-01 1.1500e-02 -1.3080e-03 7.3600e-01 2.99812859e-01 7.12908420e-05 999 999
1.6879e-01 1.1500e-02 -1.3771e-03 7.3387e-01 2.96953366e-01 7.14151054e-05 999 999
1.6830e-01 1.1500e-02 -1.4467e-03 7.3174e-01 2.94060622e-01 7.15662195e-05 999 999
1.6781e-01 1.1500e-02 -1.5169e-03 7.2961e-01 2.91137294e-01 7.16942236e-05 999 999
1.6732e-01 1.1500e-02 -1.5876e-03 7.2748e-01 2.88183354e-01 7.18502765e-05 999 999
1.6683e-01 1.1500e-02 -1.6588e-03 7.2535e-01 2.85201265e-01 7.19802678e-05 999 999
1.6634e-01 1.1500e-02 -1.7304e-03 7.2321e-01 2.82190353e-01 7.21398116e-05 999 999
1.6585e-01 1.1500e-02 -1.8025e-03 7.2108e-01 2.79152132e-01 7.22718124e-05 999 999
1.6536e-01 1.1500e-02 -1.8751e-03 7.1895e-01 2.76086467e-01 7.24334116e-05 999 999
1.6487e-01 1.1500e-02 -1.9481e-03 7.1682e-01 2.72995003e-01 7.25674446e-05 999 999
1.6438e-01 1.1500e-02 -2.0215e-03 7.1468e-01 2.69876968e-01 7.27301128e-05 999 999
1.6389e-01 1.1500e-02 -2.0953e-03 7.1255e-01 2.66734453e-01 7.28674916e-05 999 999
1.6340e-01 1.1500e-02 -2.1695e-03 7.1042e-01 2.63566820e-01 7.30300645e-05 999 999
1.6290e-01 1.1500e-02 -2.2441e-03 7.0828e-01 2.60375657e-01 7.31715176e-05 999 999
1.6241e-01 1.1500e-02 -2.3190e-03 7.0615e-01 2.57161072e-01 7.33330442e-05 999 999
1.6192e-01 1.1500e-02 -2.3942e-03 7.0401e-01 2.53924330e-01 7.34788771e-05 999 999
1.6143e-01 1.1500e-02 -2.4698e-03 7.0188e-01 2.50665401e-01 7.36395484e-05 999 999
1.6094e-01 1.1500e-02 -2.5456e-03 6.9974e-01 2.47386556e-01 7.37896730e-05 999 999
1.6045e-01 1.1500e-02 -2.6218e-03 6.9760e-01 2.44087907e-01 7.39497691e-05 999 999
1.5996e-01 1.1500e-02 -2.6982e-03 6.9547e-01 2.40770441e-01 7.41040166e-05 999 999
1.5947e-01 1.1500e-02 -2.7749e-03 6.9333e-01 2.37434643e-01 7.42640136e-05 999 999
1.5897e-01 1.1500e-02 -2.8519e-03 6.9120e-01 2.34081659e-01 7.44214794e-05 999 999
1.5848e-01 1.1500e-02 -2.9291e-03 6.8906e-01 2.30711634e-01 7.45818026e-05 999 999
1.5799e-01 1.1500e-02 -3.0065e-03 6.8692e-01 2.27325779e-01 7.47415413e-05 999 999
1.5750e-01 1.1500e-02 -3.0841e-03 6.8478e-01 2.23924736e-01 7.49023470e-05 999 999
1.5701e-01 1.1500e-02 -3.1619e-03 6.8264e-01 2.20508166e-01 7.50638269e-05 999 999
1.5652e-01 1.1500e-02 -3.2399e-03 6.8051e-01 2.17075666e-01 7.52258130e-05 999 999
1.5602e-01 1.1500e-02 -3.3181e-03 6.7837e-01 2.13627814e-01 7.53889906e-05 999 999
1.5553e-01 1.1500e-02 -3.3965e-03 6.7623e-01 2.10165078e-01 7.55525338e-05 999 999
1.5504e-01 1.1500e-02 -3.4750e-03 6.7409e-01 2.06687776e-01 7.57168244e-05 999 999
1.5455e-01 1.1500e-02 -3.5536e-03 6.7195e-01 2.03196922e-01 7.58817449e-05 999 999
1.5406e-01 1.1500e-02 -3.6324e-03 6.6981e-01 1.99692802e-01 7.60467259e-05 999 999
1.5356e-01 1.1500e-02 -3.7113e-03 6.6767e-01 1.96176150e-01 7.62127737e-05 999 999
1.5307e-01 1.1500e-02 -3.7903e-03 6.6553e-01 1.92647475e-01 7.63784265e-05 999 999
1.5258e-01 1.1500e-02 -3.8694e-03 6.6338e-01 1.89108007e-01 7.65454545e-05 999 999
1.5209e-01 1.1500e-02 -3.9486e-03 6.6124e-01 1.85559360e-01 7.67115056e-05 999 999
1.5159e-01 1.1500e-02 -4.0279e-03 6.5910e-01 1.82000970e-01 7.68789245e-05 999 999
1.5110e-01 1.1500e-02 -4.1072e-03 6.5696e-01 1.78433058e-01 7.70453491e-05 999 999
1.5061e-01 1.1500e-02 -4.1866e-03 6.5482e-01 1.74854700e-01 7.72130272e-05 999 999
1.5011e-01 1.1500e-02 -4.2661e-03 6.5267e-01 1.71267540e-01 7.73800042e-05 999 999
1.4962e-01 1.1500e-02 -4.3456e-03 6.5053e-01 1.67669933e-01 7.75482634e-05 999 999
1.4913e-01 1.1500e-02 -4.4251e-03 6.4839e-01 1.64063520e-01 7.77163850e-05 999 999
1.4864e-01 1.1500e-02 -4.5047e-03 6.4624e-01 1.60447023e-01 7.78857275e-05 999 999
1.4814e-01 1.1500e-02 -4.5843e-03 6.4410e-01 1.56821999e-01 7.80550079e-05 999 999
1.4765e-01 1.1500e-02 -4.6638e-03 6.4195e-01 1.53187735e-01 7.82252078e-05 999 999
1.4716e-01 1.1500e-02 -4.7434e-03 6.3981e-01 1.49544741e-01 7.83954162e-05 999 999
1.4666e-01 1.1500e-02 -4.8230e-03 6.3766e-01 1.45892376e-01 7.85670075e-05 999 999
1.4617e-01 1.1500e-02 -4.9025e-03 6.3552e-01 1.42232031e-01 7.87385271e-05 999 999
1.4568e-01 1.1500e-02 -4.9821e-03 6.3337e-01 1.38563420e-01 7.89121304e-05 999 999
1.4518e-01 1.1500e-02 -5.0616e-03 6.3123e-01 1.34887324e-01 7.90850916e-05 999 999
1.4469e-01 1.1500e-02 -5.1410e-03 6.2908e-01 1.31204372e-01 7.92600351e-05 999 999
1.4420e-01 1.1500e-02 -5.2204e-03 6.2694e-01 1.27514227e-01 7.94339065e-05 999 999
1.4370e-01 1.1500e-02 -5.2998e-03 6.2479e-01 1.23818842e-01 7.96096913e-05 999 999
1.4321e-01 1.1500e-02 -5.3790e-03 6.2264e-01 1.20118266e-01 7.97847108e-05 999 999
1.4271e-01 1.1500e-02 -5.4582e-03 6.2050e-01 1.16413715e-01 7.99613777e-05 999 999
1.4222e-01 1.1500e-02 -5.5373e-03 6.1835e-01 1.12704205e-01 8.01381137e-05 999 999
1.4173e-01 1.1500e-02 -5.6162e-03 6.1620e-01 1.08990900e-01 8.03158620e-05 999 999
1.4123e-01 1.1500e-02 -5.6951e-03 6.1406e-01 1.05271081e-01 8.04944125e-05 999 999
1.4074e-01 1.1500e-02 -5.7738e-03 6.1191e-01 1.01546140e-01 8.06736709e-05 999 999
1.4025e-01 1.1500e-02 -5.8525e-03 6.0977e-01 9.78155932e-02 8.08538243e-05 999 999
1.3975e-01 1.1500e-02 -5.9310e-03 6.0762e-01 9.40790253e-02 8.10345933e-05 999 999
1.3926e-01 1.1500e-02 -6.0093e-03 6.0548e-01 9.03371743e-02 8.12160424e-05 999 999
1.3877e-01 1.1500e-02 -6.0875e-03 6.0333e-01 8.65900038e-02 8.13985290e-05 999 999
1.3827e-01 1.1500e-02 -6.1656e-03 6.0119e-01 8.28377188e-02 8.15818169e-05 999 999
1.3778e-01 1.1500e-02 -6.2434e-03 5.9905e-01 7.90821438e-02 8.17660630e-05 999 999
1.3729e-01 1.1500e-02 -6.3211e-03 5.9690e-01 7.53237258e-02 8.19509116e-05 999 999
1.3679e-01 1.1500e-02 -6.3987e-03 5.9476e-01 7.15637718e-02 8.21365513e-05 999 999
1.3630e-01 1.1500e-02 -6.4760e-03 5.9262e-01 6.78004708e-02 8.23226210e-05 999 999
1.3581e-01 1.1500e-02 -6.5531e-03 5.9048e-01 6.40350526e-02 8.25088829e-05 999 999
1.3532e-01 1.1500e-02 -6.6301e-03 5.8833e-01 6.02693211e-02 8.26961399e-05 999 999
1.3482e-01 1.1500e-02 -6.7068e-03 5.8619e-01 5.65018332e-02 8.28838381e-05 999 999
1.3433e-01 1.1500e-02 -6.7833e-03 5.8406e-01 5.27334080e-02 8.30730745e-05 999 999
1.3384e-01 1.1500e-02 -6.8595e-03 5.8192e-01 4.89638749e-02 8.32624513e-05 999 999
1.3335e-01 1.1500e-02 -6.9356e-03 5.7978e-01 4.51939129e-02 8.34530405e-05 999 999
1.3286e-01 1.1500e-02 -7.0113e-03 5.7764e-01 4.14219292e-02 8.36434421e-05 999 999
1.3237e-01 1.1500e-02 -7.0869e-03 5.7550e-01 3.76484172e-02 8.38348175e-05 999 999
1.3187e-01 1.1500e-02 -7.1622e-03 5.7337e-01 3.38740201e-02 8.40268068e-05 999 999
1.3138e-01 1.1500e-02 -7.2372e-03 5.7123e-01 3.00996177e-02 8.42201498e-05 999 999
1.3089e-01 1.1500e-02 -7.3120e-03 5.6910e-01 2.63237891e-02 8.44148035e-05 999 999
1.3040e-01 1.1500e-02 -7.3865e-03 5.6697e-01 2.25473953e-02 8.46106432e-05 999 999
1.2991e-01 1.1500e-02 -7.4607e-03 5.6484e-01 1.87711084e-02 8.48074112e-05 999 999
1.2942e-01 1.1500e-02 -7.5346e-03 5.6271e-01 1.49939496e-02 8.50047314e-05 999 999
1.2893e-01 1.1500e-02 -7.6082e-03 5.6058e-01 1.12171592e-02 8.52026781e-05 999 999
1.2844e-01 1.1500e-02 -7.6815e-03 5.5845e-01 7.44113759e-03 8.54016597e-05 999 999
1.2795e-01 1.1500e-02 -7.7546e-03 5.5632e-01 3.66826400e-03 8.56017460e-05 999 999
1.2747e-01 1.1500e-02 -7.8273e-03 5.5420e-01 -1.02646461e-04 8.58033387e-05 999 999
1.2698e-01 1.1500e-02 -7.8996e-03 5.5207e-01 -3.87113341e-03 8.60061670e-05 999 999
1.2649e-01 1.1500e-02 -7.9717e-03 5.4995e-01 -7.63699949e-03 8.62100327e-05 999 999
1.2600e-01 1.1500e-02 -8.0434e-03 5.4783e-01 -1.13996868e-02 8.64146289e-05 999 999
1.2551e-01 1.1500e-02 -8.1148e-03 5.4571e-01 -1.51605051e-02 8.66200668e-05 999 999
1.2503e-01 1.1500e-02 -8.1859e-03 5.4359e-01 -1.89194016e-02 8.68265897e-05 999 999
1.2454e-01 1.1500e-02 -8.2566e-03 5.4147e-01 -2.26731950e-02 8.70344093e-05 999 999
1.2405e-01 1.1500e-02 -8.3269e-03 5.3935e-01 -2.64250761e-02 8.72439727e-05 999 999
1.2357e-01 1.1500e-02 -8.3969e-03 5.3724e-01 -3.01733037e-02 8.74550316e-05 999 999
1.2308e-01 1.1500e-02 -8.4665e-03 5.3513e-01 -3.39168469e-02 8.76673293e-05 999 999
1.2259e-01 1.1500e-02 -8.5357e-03 5.3302e-01 -3.76565834e-02 8.78806426e-05 999 999
1.2211e-01 1.1500e-02 -8.6046e-03 5.3091e-01 -4.13912115e-02 8.80946967e-05 999 999
1.2162e-01 1.1500e-02 -8.6731e-03 5.2880e-01 -4.51214045e-02 8.83097850e-05 999 999
1.2114e-01 1.1500e-02 -8.7412e-03 5.2669e-01 -4.88463959e-02 8.85263895e-05 999 999
1.2065e-01 1.1500e-02 -8.8089e-03 5.2459e-01 -5.25661106e-02 8.87444684e-05 999 999
1.2017e-01 1.1500e-02 -8.8762e-03 5.2248e-01 -5.62806955e-02 8.89643741e-05 999 999
1.1969e-01 1.1500e-02 -8.9431e-03 5.2038e-01 -5.99899457e-02 8.91857696e-05 999 999
1.1921e-01 1.1500e-02 -9.0096e-03 5.1828e-01 -6.36943923e-02 8.94085386e-05 999 999
1.1872e-01 1.1500e-02 -9.0757e-03 5.1619e-01 -6.73922625e-02 8.96322148e-05 999 999
1.1824e-01 1.1500e-02 -9.1413e-03 5.1409e-01 -7.10852222e-02 8.98570628e-05 999 999
1.1776e-01 1.1500e-02 -9.2066e-03 5.1200e-01 -7.47715067e-02 9.00831490e-05 999 999
1.1728e-01 1.1500e-02 -9.2714e-03 5.0991e-01 -7.84508991e-02 9.03107997e-05 999 999
1.1680e-01 1.1500e-02 -9.3358e-03 5.0782e-01 -8.21246688e-02 9.05404003e-05 999 999
1.1632e-01 1.1500e-02 -9.3998e-03 5.0573e-01 -8.57913683e-02 9.07716314e-05 999 999
1.1584e-01 1.1500e-02 -9.4633e-03 5.0365e-01 -8.94510312e-02 9.10044704e-05 999 999
1.1536e-01 1.1500e-02 -9.5264e-03 5.0156e-01 -9.31024599e-02 9.12383402e-05 999 999
1.1488e-01 1.1500e-02 -9.5890e-03 4.9948e-01 -9.67473537e-02 9.14735366e-05 999 999
1.1440e-01 1.1500e-02 -9.6512e-03 4.9741e-01 -1.00385100e-01 9.17097192e-05 999 999
1.1393e-01 1.1500e-02 -9.7129e-03 4.9533e-01 -1.04014888e-01 9.19475186e-05 999 999
1.1345e-01 1.1500e-02 -9.7742e-03 4.9326e-01 -1.07635891e-01 9.21867734e-05 999 999
1.1297e-01 1.1500e-02 -9.8350e-03 4.9119e-01 -1.11249384e-01 9.24280346e-05 999 999
1.1250e-01 1.1500e-02 -9.8953e-03 4.8912e-01 -1.14855052e-01 9.26708956e-05 999 999
1.1202e-01 1.1500e-02 -9.9552e-03 4.8705e-01 -1.18452102e-01 9.29153927e-05 999 999
1.1155e-01 1.1500e-02 -1.0015e-02 4.8499e-01 -1.22040660e-01 9.31609932e-05 999 999
1.1107e-01 1.1500e-02 -1.0073e-02 4.8292e-01 -1.25620026e-01 9.34078599e-05 999 999
1.1060e-01 1.1500e-02 -1.0132e-02 4.8087e-01 -1.29190469e-01 9.36557637e-05 999 999
1.1013e-01 1.1500e-02 -1.0190e-02 4.7881e-01 -1.32752248e-01 9.39053827e-05 999 999
1.0965e-01 1.1500e-02 -1.0247e-02 4.7676e-01 -1.36304199e-01 9.41565005e-05 999 999
1.0918e-01 1.1500e-02 -1.0304e-02 4.7470e-01 -1.39846104e-01 9.44094640e-05 999 999
1.0871e-01 1.1500e-02 -1.0361e-02 4.7266e-01 -1.43379989e-01 9.46641511e-05 999 999
1.0824e-01 1.1500e-02 -1.0417e-02 4.7061e-01 -1.46904095e-01 9.49204586e-05 999 999
1.0777e-01 1.1500e-02 -1.0472e-02 4.6857e-01 -1.50418000e-01 9.51779137e-05 999 999
1.0730e-01 1.1500e-02 -1.0527e-02 4.6653e-01 -1.53921967e-01 9.54367470e-05 999 999
1.0683e-01 1.1500e-02 -1.0582e-02 4.6449e-01 -1.57416237e-01 9.56967847e-05 999 999
1.0636e-01 1.1500e-02 -1.0636e-02 4.6245e-01 -1.60901304e-01 9.59586474e-05 999 999
1.0590e-01 1.1500e-02 -1.0689e-02 4.6042e-01 -1.64377164e-01 9.62222398e-05 999 999
1.0543e-01 1.1500e-02 -1.0742e-02 4.5839e-01 -1.67843117e-01 9.64878360e-05 999 999
1.0496e-01 1.1500e-02 -1.0794e-02 4.5637e-01 -1.71299741e-01 9.67552011e-05 999 999
1.0450e-01 1.1500e-02 -1.0846e-02 4.5435e-01 -1.74744450e-01 9.70241327e-05 999 999
1.0403e-01 1.1500e-02 -1.0898e-02 4.5233e-01 -1.78176849e-01 9.72942385e-05 999 999
1.0357e-01 1.1500e-02 -1.0948e-02 4.5031e-01 -1.81597195e-01 9.75657369e-05 999 999
1.0311e-01 1.1500e-02 -1.0999e-02 4.4830e-01 -1.85004437e-01 9.78382456e-05 999 999
1.0265e-01 1.1500e-02 -1.1048e-02 4.4628e-01 -1.88397265e-01 9.81121551e-05 999 999
1.0218e-01 1.1500e-02 -1.1098e-02 4.4428e-01 -1.91774979e-01 9.83873241e-05 999 999
1.0172e-01 1.1500e-02 -1.1146e-02 4.4227e-01 -1.95137659e-01 9.86639885e-05 999 999
1.0126e-01 1.1500e-02 -1.1194e-02 4.4027e-01 -1.98484758e-01 9.89419031e-05 999 999
1.0080e-01 1.1500e-02 -1.1242e-02 4.3827e-01 -2.01814192e-01 9.92209036e-05 999 999
1.0034e-01 1.1500e-02 -1.1289e-02 4.3628e-01 -2.05124856e-01 9.95005882e-05 999 999
9.9886e-02 1.1500e-02 -1.1335e-02 4.3429e-01 -2.08417650e-01 9.97811761e-05 999 999
9.9429e-02 1.1500e-02 -1.1381e-02 4.3230e-01 -2.11691421e-01 1.00062387e-04 999 999
9.8972e-02 1.1500e-02 -1.1427e-02 4.3031e-01 -2.14948081e-01 1.00344725e-04 999 999
9.8517e-02 1.1500e-02 -1.1471e-02 4.2833e-01 -2.18185246e-01 1.00627981e-04 999 999
9.8062e-02 1.1500e-02 -1.1516e-02 4.2636e-01 -2.21404629e-01 1.00912426e-04 999 999
9.7608e-02 1.1500e-02 -1.1559e-02 4.2438e-01 -2.24605383e-01 1.01197944e-04 999 999
9.7154e-02 1.1500e-02 -1.1602e-02 4.2241e-01 -2.27785986e-01 1.01484263e-04 999 999
9.6702e-02 1.1500e-02 -1.1645e-02 4.2044e-01 -2.30945601e-01 1.01771268e-04 999 999
9.6250e-02 1.1500e-02 -1.1687e-02 4.1848e-01 -2.34083249e-01 1.02058595e-04 999 999
9.5799e-02 1.1500e-02 -1.1728e-02 4.1652e-01 -2.37197580e-01 1.02346335e-04 999 999
9.5349e-02 1.1500e-02 -1.1769e-02 4.1456e-01 -2.40287454e-01 1.02634092e-04 999 999
9.4900e-02 1.1500e-02 -1.1809e-02 4.1261e-01 -2.43350908e-01 1.02922074e-04 999 999
9.4452e-02 1.1500e-02 -1.1849e-02 4.1066e-01 -2.46387047e-01 1.03209941e-04 999 999
9.4004e-02 1.1500e-02 -1.1888e-02 4.0871e-01 -2.49396095e-01 1.03497852e-04 999 999
9.3557e-02 1.1500e-02 -1.1926e-02 4.0677e-01 -2.52372889e-01 1.03785044e-04 999 999
9.3112e-02 1.1500e-02 -1.1964e-02 4.0483e-01 -2.55319719e-01 1.04071727e-04 999 999
9.2667e-02 1.1500e-02 -1.2001e-02 4.0290e-01 -2.58233861e-01 1.04357340e-04 999 999
9.2223e-02 1.1500e-02 -1.2038e-02 4.0097e-01 -2.61112916e-01 1.04641682e-04 999 999
9.1780e-02 1.1500e-02 -1.2074e-02 3.9904e-01 -2.63958403e-01 1.04924715e-04 999 999
9.1337e-02 1.1500e-02 -1.2109e-02 3.9712e-01 -2.66768085e-01 1.05206332e-04 999 999
9.0896e-02 1.1500e-02 -1.2144e-02 3.9520e-01 -2.69543344e-01 1.05486607e-04 999 999
9.0455e-02 1.1500e-02 -1.2179e-02 3.9328e-01 -2.72282380e-01 1.05765198e-04 999 999
9.0016e-02 1.1500e-02 -1.2212e-02 3.9137e-01 -2.74984291e-01 1.06042052e-04 999 999
8.9577e-02 1.1500e-02 -1.2245e-02 3.8947e-01 -2.77649072e-01 1.06316782e-04 999 999
8.9139e-02 1.1500e-02 -1.2278e-02 3.8756e-01 -2.80275222e-01 1.06589487e-04 999 999
8.8702e-02 1.1500e-02 -1.2310e-02 3.8566e-01 -2.82863041e-01 1.06859515e-04 999 999
8.8267e-02 1.1500e-02 -1.2341e-02 3.8377e-01 -2.85412024e-01 1.07127450e-04 999 999
8.7832e-02 1.1500e-02 -1.2371e-02 3.8188e-01 -2.87921124e-01 1.07392180e-04 999 999
8.7398e-02 1.1500e-02 -1.2402e-02 3.7999e-01 -2.90388066e-01 1.07654510e-04 999 999
8.6964e-02 1.1500e-02 -1.2431e-02 3.7811e-01 -2.92812249e-01 1.07913002e-04 999 999
8.6532e-02 1.1500e-02 -1.2460e-02 3.7623e-01 -2.95194293e-01 1.08169207e-04 999 999
8.6101e-02 1.1500e-02 -1.2488e-02 3.7435e-01 -2.97533170e-01 1.08420813e-04 999 999
8.5671e-02 1.1500e-02 -1.2516e-02 3.7248e-01 -2.99827262e-01 1.08670043e-04 999 999
8.5242e-02 1.1500e-02 -1.2543e-02 3.7062e-01 -3.02075763e-01 1.08913431e-04 999 999
8.4813e-02 1.1500e-02 -1.2569e-02 3.6875e-01 -3.04278603e-01 1.09154934e-04 999 999
8.4386e-02 1.1500e-02 -1.2595e-02 3.6690e-01 -3.06432485e-01 1.09388760e-04 999 999
8.3960e-02 1.1500e-02 -1.2620e-02 3.6504e-01 -3.08536497e-01 1.09621477e-04 999 999
8.3535e-02 1.1500e-02 -1.2645e-02 3.6319e-01 -3.10591005e-01 1.09844469e-04 999 999
8.3110e-02 1.1500e-02 -1.2669e-02 3.6135e-01 -3.12592927e-01 1.10068086e-04 999 999
8.2687e-02 1.1500e-02 -1.2692e-02 3.5951e-01 -3.14542243e-01 1.10278576e-04 999 999
8.2265e-02 1.1500e-02 -1.2715e-02 3.5767e-01 -3.16439559e-01 1.10493068e-04 999 999
8.1843e-02 1.1500e-02 -1.2737e-02 3.5584e-01 -3.18286282e-01 1.10690015e-04 999 999
8.1423e-02 1.1500e-02 -1.2759e-02 3.5401e-01 -3.20082664e-01 1.10896539e-04 999 999
8.1004e-02 1.1500e-02 -1.2780e-02 3.5219e-01 -3.21828736e-01 1.11078231e-04 999 999
8.0586e-02 1.1500e-02 -1.2800e-02 3.5037e-01 -3.23524844e-01 1.11278459e-04 999 999
8.0169e-02 1.1500e-02 -1.2820e-02 3.4856e-01 -3.25172736e-01 1.11442572e-04 999 999
7.9753e-02 1.1500e-02 -1.2839e-02 3.4675e-01 -3.26770057e-01 1.11638926e-04 999 999
7.9337e-02 1.1500e-02 -1.2858e-02 3.4495e-01 -3.28317385e-01 1.11781500e-04 999 999
7.8923e-02 1.1500e-02 -1.2876e-02 3.4315e-01 -3.29814307e-01 1.11977180e-04 999 999
7.8510e-02 1.1500e-02 -1.2893e-02 3.4135e-01 -3.31260417e-01 1.12092907e-04 999 999
7.8099e-02 1.1500e-02 -1.2910e-02 3.3956e-01 -3.32654458e-01 1.12292634e-04 999 999
7.7688e-02 1.1500e-02 -1.2926e-02 3.3777e-01 -3.33997652e-01 1.12374408e-04 999 999
7.7278e-02 1.1500e-02 -1.2942e-02 3.3599e-01 -3.35287706e-01 1.12584674e-04 999 999
7.6869e-02 1.1500e-02 -1.2957e-02 3.3421e-01 -3.36524959e-01 1.12622716e-04 999 999
7.6462e-02 1.1500e-02 -1.2972e-02 3.3244e-01 -3.37707655e-01 1.12852522e-04 999 999
7.6055e-02 1.1500e-02 -1.2986e-02 3.3067e-01 -3.38839447e-01 1.12835054e-04 999 999
7.5650e-02 1.1500e-02 -1.2999e-02 3.2891e-01 -3.39915892e-01 1.13096783e-04 999 999
7.5245e-02 1.1500e-02 -1.3012e-02 3.2715e-01 -3.40944769e-01 1.13008921e-04 999 999
7.4842e-02 1.1500e-02 -1.3024e-02 3.2540e-01 -3.41918521e-01 1.13319044e-04 999 999
7.4440e-02 1.1500e-02 -1.3036e-02 3.2365e-01 -3.42845444e-01 1.13140996e-04 999 999
7.4039e-02 1.1500e-02 -1.3047e-02 3.2191e-01 -3.43717473e-01 1.13520264e-04 999 999
7.3639e-02 1.1500e-02 -1.3058e-02 3.2017e-01 -3.44545264e-01 1.13229563e-04 999 999
7.3240e-02 1.1500e-02 -1.3068e-02 3.1843e-01 -3.45316649e-01 1.13700293e-04 999 999
7.2842e-02 1.1500e-02 -1.3077e-02 3.1671e-01 -3.46046071e-01 1.13275909e-04 999 999
7.2446e-02 1.1500e-02 -1.3086e-02 3.1498e-01 -3.46715386e-01 1.13854827e-04 999 999
7.2050e-02 1.1500e-02 -1.3095e-02 3.1326e-01 -3.47345359e-01 1.13286332e-04 999 999
7.1656e-02 1.1500e-02 -1.3103e-02 3.1155e-01 -3.47912650e-01 1.13972774e-04 999 999
7.1262e-02 1.1500e-02 -1.3110e-02 3.0984e-01 -3.48444197e-01 1.13274115e-04 999 999
7.0870e-02 1.1500e-02 -1.3117e-02 3.0813e-01 -3.48909725e-01 1.14035037e-04 999 999
7.0479e-02 1.1500e-02 -1.3123e-02 3.0643e-01 -3.49341874e-01 1.13255785e-04 999 999
7.0090e-02 1.1500e-02 -1.3129e-02 3.0474e-01 -3.49706222e-01 1.14024828e-04 999 999
6.9701e-02 1.1500e-02 -1.3134e-02 3.0305e-01 -3.50041827e-01 1.13254080e-04 999 999
6.9313e-02 1.1500e-02 -1.3139e-02 3.0136e-01 -3.50310682e-01 1.13908720e-04 999 999
6.8927e-02 1.1500e-02 -1.3143e-02 2.9968e-01 -3.50550565e-01 1.13289667e-04 999 999
6.8542e-02 1.1500e-02 -1.3147e-02 2.9801e-01 -3.50723565e-01 1.13688230e-04 999 999
6.8158e-02 1.1500e-02 -1.3150e-02 2.9634e-01 -3.50868280e-01 1.13327306e-04 999 999
6.7775e-02 1.1500e-02 -1.3153e-02 2.9467e-01 -3.50949671e-01 1.13433458e-04 999 999