
TITLE = "032.01"
VARIABLES =   "X"   "Y"   "Z"   "X/C"   "CP_AVG"   "CP_RMS"   "CF_AVG"   "CF_RMS"


DATASETAUXDATA ParticipantID   = "032"
DATASETAUXDATA SubmissionDate  = "2025-04-15"
DATASETAUXDATA Name            = "Johan Jansson"
DATASETAUXDATA Email           = "jjan@kth.se"
DATASETAUXDATA Institution     = "KTH"
DATASETAUXDATA SolverName      = "Adaptive Euler 2025-04-12_01"
DATASETAUXDATA BasicAlgorithm  = "Euler (Implicit LES with free slip BC)"
DATASETAUXDATA TurbulenceModel = "No turbulence model (Implicit LES)"
DATASETAUXDATA GridId          = "Tet"
DATASETAUXDATA Notes           = ""


ZONE T="032.01 - ALPHA 3.5 - GRID CUSTOM01 - WING SECTION  1"
AUXDATA GridLevel       = "CUSTOM01"
AUXDATA Mach            = "0.73"
AUXDATA Re              = "3e6"
AUXDATA Alpha           = "3.5"
AUXDATA Tstatic         = "271.0"
AUXDATA CLtotal         = "-999"
AUXDATA Eta             = "0.0"
AUXDATA Dt              = ""
AUXDATA CtuStart        = ""
AUXDATA CtuAvg          = ""
AUXDATA GridFileName    = ""

0.229610 -0.390000 -0.013467 1.000000 -0.164830 -999 -999 -999
0.218630 -0.390000 -0.010727 0.952181 0.105402 -999 -999 -999
0.229610 -0.390000 -0.013467 1.000000 -0.164829 -999 -999 -999
0.229610 -0.390000 -0.013467 1.000000 -0.164836 -999 -999 -999
0.229540 -0.390000 -0.014614 0.999695 0.136062 -999 -999 -999
0.229540 -0.390000 -0.014614 0.999695 0.136065 -999 -999 -999
0.229540 -0.390000 -0.014614 0.999695 0.136065 -999 -999 -999
0.219720 -0.390000 -0.013262 0.956928 0.638092 -999 -999 -999
-0.000004 -0.390000 -0.000276 0.000000 0.803070 -999 -999 -999
-0.000003 -0.390000 -0.000214 0.000004 0.786873 -999 -999 -999
-0.000000 -0.390000 0.000000 0.000016 0.749032 -999 -999 -999
0.000007 -0.390000 0.000069 0.000045 0.746188 -999 -999 -999
0.000024 -0.390000 0.000241 0.000120 0.755626 -999 -999 -999
0.000066 -0.390000 0.000466 0.000301 0.655783 -999 -999 -999
0.000086 -0.390000 0.000574 0.000388 0.640017 -999 -999 -999
0.000119 -0.390000 0.000695 0.000534 0.552938 -999 -999 -999
0.000187 -0.390000 0.000942 0.000831 0.361205 -999 -999 -999
0.000334 -0.390000 0.001342 0.001472 0.363778 -999 -999 -999
0.000271 -0.390000 0.001169 0.001195 0.345069 -999 -999 -999
0.000438 -0.390000 0.001566 0.001922 0.254977 -999 -999 -999
0.000529 -0.390000 0.001763 0.002317 0.240963 -999 -999 -999
0.000605 -0.390000 0.001899 0.002652 0.122027 -999 -999 -999
0.000778 -0.390000 0.002205 0.003403 0.052211 -999 -999 -999
0.000998 -0.390000 0.002529 0.004362 -0.023173 -999 -999 -999
0.001123 -0.390000 0.002710 0.004905 0.033195 -999 -999 -999
0.001293 -0.390000 0.002917 0.005649 -0.182716 -999 -999 -999
0.001527 -0.390000 0.003200 0.006666 -0.369535 -999 -999 -999
0.001698 -0.390000 0.003377 0.007412 -0.385907 -999 -999 -999
0.001951 -0.390000 0.003634 0.008511 -0.270409 -999 -999 -999
0.002269 -0.390000 0.003913 0.009896 -0.407828 -999 -999 -999
0.002522 -0.390000 0.004129 0.010997 -0.569740 -999 -999 -999
0.003096 -0.390000 0.004545 0.013501 -0.685327 -999 -999 -999
0.003255 -0.390000 0.004661 0.014193 -0.701701 -999 -999 -999
0.003423 -0.390000 0.004761 0.014924 -0.721184 -999 -999 -999
0.004266 -0.390000 0.005261 0.018594 -0.877164 -999 -999 -999
0.005225 -0.390000 0.005734 0.022770 -1.172321 -999 -999 -999
0.005271 -0.390000 0.005756 0.022970 -1.177798 -999 -999 -999
0.006605 -0.390000 0.006295 0.028780 -1.165489 -999 -999 -999
0.007009 -0.390000 0.006452 0.030539 -1.216539 -999 -999 -999
0.007940 -0.390000 0.006742 0.034594 -1.251143 -999 -999 -999
0.009242 -0.390000 0.007152 0.040267 -1.336835 -999 -999 -999
0.010367 -0.390000 0.007422 0.045165 -1.379740 -999 -999 -999
0.012578 -0.390000 0.007948 0.054795 -1.460179 -999 -999 -999
0.016056 -0.390000 0.008550 0.069942 -1.535313 -999 -999 -999
0.017376 -0.390000 0.008781 0.075691 -1.548822 -999 -999 -999
0.019212 -0.390000 0.009004 0.083687 -1.553940 -999 -999 -999
0.021604 -0.390000 0.009287 0.094104 -1.559219 -999 -999 -999
0.000054 -0.390000 -0.000725 0.000251 0.983402 -999 -999 -999
0.000057 -0.390000 -0.000739 0.000262 0.979343 -999 -999 -999
0.000060 -0.390000 -0.000752 0.000277 0.979363 -999 -999 -999
0.006075 -0.390000 -0.005484 0.026474 0.508251 -999 -999 -999
0.006253 -0.390000 -0.005571 0.027250 0.495150 -999 -999 -999
0.006925 -0.390000 -0.005862 0.030175 0.467433 -999 -999 -999
0.000319 -0.390000 -0.001418 0.001405 0.947214 -999 -999 -999
0.000313 -0.390000 -0.001406 0.001381 0.950686 -999 -999 -999
0.000327 -0.390000 -0.001431 0.001438 0.956312 -999 -999 -999
0.048016 -0.390000 0.010745 0.209132 -1.522743 -999 -999 -999
0.051565 -0.390000 0.010838 0.224588 -1.516185 -999 -999 -999
0.053822 -0.390000 0.010899 0.234418 -1.515979 -999 -999 -999
0.055319 -0.390000 0.010874 0.240938 -1.531786 -999 -999 -999
0.060858 -0.390000 0.010781 0.265061 -1.567091 -999 -999 -999
0.080648 -0.390000 0.010448 0.351249 -1.488164 -999 -999 -999
0.074931 -0.390000 0.010544 0.326351 -1.462596 -999 -999 -999
0.081925 -0.390000 0.010423 0.356811 -1.502005 -999 -999 -999
0.086057 -0.390000 0.010141 0.374806 -1.542651 -999 -999 -999
0.091447 -0.390000 0.009780 0.398280 -1.622811 -999 -999 -999
0.082975 -0.390000 0.010351 0.361384 -1.530929 -999 -999 -999
0.000016 -0.390000 -0.000514 0.000086 0.918895 -999 -999 -999
-0.000001 -0.390000 -0.000302 0.000009 0.818856 -999 -999 -999
0.000116 -0.390000 -0.000954 0.000521 0.904867 -999 -999 -999
0.000189 -0.390000 -0.001149 0.000839 1.007358 -999 -999 -999
0.000191 -0.390000 -0.001153 0.000846 1.007397 -999 -999 -999
0.000210 -0.390000 -0.001193 0.000930 0.998852 -999 -999 -999
0.000518 -0.390000 -0.001735 0.002271 0.931471 -999 -999 -999
0.000524 -0.390000 -0.001744 0.002300 0.925279 -999 -999 -999
0.000778 -0.390000 -0.002067 0.003406 0.989060 -999 -999 -999
0.000804 -0.390000 -0.002095 0.003516 0.993122 -999 -999 -999
0.001229 -0.390000 -0.002528 0.005367 0.918591 -999 -999 -999
0.001267 -0.390000 -0.002565 0.005534 0.898775 -999 -999 -999
0.001777 -0.390000 -0.002994 0.007754 0.852046 -999 -999 -999
0.001778 -0.390000 -0.002995 0.007760 0.852209 -999 -999 -999
0.001808 -0.390000 -0.003017 0.007891 0.848058 -999 -999 -999
0.002664 -0.390000 -0.003625 0.011619 0.732995 -999 -999 -999
0.002715 -0.390000 -0.003657 0.011839 0.729351 -999 -999 -999
0.004000 -0.390000 -0.004423 0.017438 0.666599 -999 -999 -999
0.004383 -0.390000 -0.004632 0.019106 0.643599 -999 -999 -999
0.009102 -0.390000 -0.006814 0.039657 0.402353 -999 -999 -999
0.010185 -0.390000 -0.007230 0.044373 0.369690 -999 -999 -999
0.013413 -0.390000 -0.008401 0.058431 0.274637 -999 -999 -999
0.015266 -0.390000 -0.008997 0.066501 0.207793 -999 -999 -999
0.019933 -0.390000 -0.010347 0.086827 0.127211 -999 -999 -999
0.024145 -0.390000 -0.011373 0.105170 0.071105 -999 -999 -999
0.025698 -0.390000 -0.011739 0.111934 0.047543 -999 -999 -999
0.061240 -0.390000 -0.016888 0.266725 -0.330677 -999 -999 -999
0.061639 -0.390000 -0.016934 0.268462 -0.344212 -999 -999 -999
0.059860 -0.390000 -0.016734 0.260714 -0.288976 -999 -999 -999
0.056417 -0.390000 -0.016352 0.245720 -0.193379 -999 -999 -999
0.061895 -0.390000 -0.016947 0.269577 -0.356110 -999 -999 -999
0.062389 -0.390000 -0.016959 0.271729 -0.335490 -999 -999 -999
0.065222 -0.390000 -0.017025 0.284067 -0.301911 -999 -999 -999
0.024276 -0.390000 0.009602 0.105741 -1.474303 -999 -999 -999
0.024348 -0.390000 0.009608 0.106055 -1.477314 -999 -999 -999
0.028574 -0.390000 0.009926 0.124459 -1.577620 -999 -999 -999
0.030060 -0.390000 0.010037 0.130931 -1.542467 -999 -999 -999
0.024545 -0.390000 0.009623 0.106913 -1.476343 -999 -999 -999
0.030833 -0.390000 0.010095 0.134298 -1.547315 -999 -999 -999
0.033126 -0.390000 0.010239 0.144284 -1.546612 -999 -999 -999
0.035450 -0.390000 0.010384 0.154405 -1.521122 -999 -999 -999
0.036306 -0.390000 0.010437 0.158133 -1.545750 -999 -999 -999
0.038691 -0.390000 0.010500 0.168520 -1.620174 -999 -999 -999
0.041563 -0.390000 0.010575 0.181028 -1.658781 -999 -999 -999
0.044903 -0.390000 0.010663 0.195575 -1.529671 -999 -999 -999
0.067895 -0.390000 0.010662 0.295708 -1.503242 -999 -999 -999
0.066475 -0.390000 0.010686 0.289524 -1.564394 -999 -999 -999
0.062306 -0.390000 0.010756 0.271367 -1.599090 -999 -999 -999
0.069294 -0.390000 0.010639 0.301801 -1.484121 -999 -999 -999
0.103650 -0.390000 0.008963 0.451426 -1.584181 -999 -999 -999
0.100380 -0.390000 0.009182 0.437185 -1.620750 -999 -999 -999
0.098163 -0.390000 0.009330 0.427529 -1.577941 -999 -999 -999
0.108860 -0.390000 0.008614 0.474116 -1.571689 -999 -999 -999
0.109310 -0.390000 0.008584 0.476076 -1.568730 -999 -999 -999
0.028393 -0.390000 -0.012373 0.123671 -0.022601 -999 -999 -999
0.030200 -0.390000 -0.012710 0.131541 -0.027979 -999 -999 -999
0.033520 -0.390000 -0.013328 0.146000 -0.043119 -999 -999 -999
0.034813 -0.390000 -0.013560 0.151631 -0.031523 -999 -999 -999
0.036455 -0.390000 -0.013855 0.158782 -0.066831 -999 -999 -999
0.038622 -0.390000 -0.014244 0.168220 -0.121634 -999 -999 -999
0.040522 -0.390000 -0.014585 0.176495 -0.178283 -999 -999 -999
0.045471 -0.390000 -0.015135 0.198048 -0.126250 -999 -999 -999
0.046536 -0.390000 -0.015253 0.202686 -0.119246 -999 -999 -999
0.051118 -0.390000 -0.015763 0.222642 -0.099155 -999 -999 -999
0.053356 -0.390000 -0.016011 0.232389 -0.147759 -999 -999 -999
0.076102 -0.390000 -0.017280 0.331451 -0.131462 -999 -999 -999
0.078892 -0.390000 -0.017345 0.343602 -0.174278 -999 -999 -999
0.074308 -0.390000 -0.017238 0.323638 -0.148348 -999 -999 -999
0.185330 -0.390000 -0.010893 0.807154 0.452555 -999 -999 -999
0.185970 -0.390000 -0.010901 0.809942 0.486502 -999 -999 -999
0.185070 -0.390000 -0.010890 0.806022 0.469441 -999 -999 -999
0.184840 -0.390000 -0.010887 0.805020 0.466288 -999 -999 -999
0.184140 -0.390000 -0.010920 0.801972 0.448546 -999 -999 -999
0.170820 -0.390000 -0.011565 0.743961 0.382364 -999 -999 -999
0.170570 -0.390000 -0.011585 0.742872 0.369459 -999 -999 -999
0.169330 -0.390000 -0.011684 0.737472 0.380245 -999 -999 -999
0.169140 -0.390000 -0.011699 0.736644 0.377053 -999 -999 -999
0.170000 -0.390000 -0.011630 0.740390 0.351754 -999 -999 -999
0.170290 -0.390000 -0.011607 0.741653 0.368140 -999 -999 -999
0.171400 -0.390000 -0.011537 0.746487 0.380747 -999 -999 -999
0.159160 -0.390000 -0.012497 0.693180 0.303200 -999 -999 -999
0.159040 -0.390000 -0.012509 0.692658 0.300035 -999 -999 -999
0.159190 -0.390000 -0.012495 0.693311 0.303759 -999 -999 -999
0.218870 -0.390000 -0.013145 0.953226 0.576559 -999 -999 -999
0.217860 -0.390000 -0.013006 0.948827 0.629355 -999 -999 -999
0.214810 -0.390000 -0.012586 0.935544 0.489711 -999 -999 -999
0.092679 -0.390000 0.009697 0.403646 -1.585127 -999 -999 -999
0.094640 -0.390000 0.009566 0.412186 -1.619881 -999 -999 -999
0.121090 -0.390000 0.007672 0.527380 -1.584640 -999 -999 -999
0.118230 -0.390000 0.007986 0.514924 -1.568483 -999 -999 -999
0.114620 -0.390000 0.008228 0.499202 -1.548731 -999 -999 -999
0.110060 -0.390000 0.008533 0.479343 -1.566619 -999 -999 -999
0.141890 -0.390000 0.004940 0.617967 -1.229189 -999 -999 -999
0.142240 -0.390000 0.004889 0.619491 -1.172484 -999 -999 -999
0.150520 -0.390000 0.003682 0.655552 -0.330471 -999 -999 -999
0.146040 -0.390000 0.004336 0.636041 -0.691251 -999 -999 -999
0.154320 -0.390000 0.003129 0.672101 -0.193144 -999 -999 -999
0.068349 -0.390000 -0.017098 0.297685 -0.184075 -999 -999 -999
0.068849 -0.390000 -0.017110 0.299863 -0.168476 -999 -999 -999
0.070914 -0.390000 -0.017158 0.308856 -0.197107 -999 -999 -999
0.090610 -0.390000 -0.017619 0.394635 -0.273614 -999 -999 -999
0.088952 -0.390000 -0.017580 0.387414 -0.237434 -999 -999 -999
0.086983 -0.390000 -0.017534 0.378839 -0.224969 -999 -999 -999
0.095073 -0.390000 -0.017480 0.414072 -0.189767 -999 -999 -999
0.092519 -0.390000 -0.017560 0.402949 -0.266824 -999 -999 -999
0.096997 -0.390000 -0.017420 0.422451 -0.214086 -999 -999 -999
0.102030 -0.390000 -0.017114 0.444371 -0.117550 -999 -999 -999
0.099400 -0.390000 -0.017274 0.432917 -0.128709 -999 -999 -999
0.107060 -0.390000 -0.016808 0.466277 -0.051492 -999 -999 -999
0.105890 -0.390000 -0.016879 0.461182 -0.051203 -999 -999 -999
0.107850 -0.390000 -0.016760 0.469718 -0.039634 -999 -999 -999
0.111990 -0.390000 -0.016507 0.487748 -0.050484 -999 -999 -999
0.112090 -0.390000 -0.016501 0.488184 -0.050626 -999 -999 -999
0.135730 -0.390000 -0.014744 0.591139 0.109435 -999 -999 -999
0.136770 -0.390000 -0.014651 0.595668 0.107678 -999 -999 -999
0.134370 -0.390000 -0.014866 0.585216 0.092105 -999 -999 -999
0.130240 -0.390000 -0.015237 0.567229 0.031330 -999 -999 -999
0.139260 -0.390000 -0.014411 0.606513 0.126018 -999 -999 -999
0.142730 -0.390000 -0.014077 0.621625 0.139108 -999 -999 -999
0.122150 -0.390000 -0.015889 0.531996 -0.034164 -999 -999 -999
0.124740 -0.390000 -0.015730 0.543276 -0.018688 -999 -999 -999
0.127080 -0.390000 -0.015520 0.553467 0.019790 -999 -999 -999
0.178060 -0.390000 -0.001013 0.775492 -0.274660 -999 -999 -999
0.176500 -0.390000 -0.000649 0.768698 -0.311832 -999 -999 -999
0.173740 -0.390000 -0.000010 0.756678 -0.457130 -999 -999 -999
0.182570 -0.390000 -0.002059 0.795134 -0.220260 -999 -999 -999
0.186700 -0.390000 -0.003018 0.813121 -0.184300 -999 -999 -999
0.079933 -0.390000 -0.017369 0.348135 -0.185910 -999 -999 -999
0.083356 -0.390000 -0.017449 0.363043 -0.138954 -999 -999 -999
0.084442 -0.390000 -0.017475 0.367773 -0.143464 -999 -999 -999
0.116290 -0.390000 -0.016245 0.506475 -0.002345 -999 -999 -999
0.117120 -0.390000 -0.016195 0.510090 0.002433 -999 -999 -999
0.118320 -0.390000 -0.016121 0.515316 -0.008198 -999 -999 -999
0.177670 -0.390000 -0.011233 0.773794 0.374283 -999 -999 -999
0.178550 -0.390000 -0.011191 0.777626 0.347557 -999 -999 -999
0.177620 -0.390000 -0.011236 0.773576 0.374014 -999 -999 -999
0.177560 -0.390000 -0.011239 0.773315 0.374338 -999 -999 -999
0.176690 -0.390000 -0.011281 0.769526 0.378370 -999 -999 -999
0.191730 -0.390000 -0.010977 0.835027 0.431508 -999 -999 -999
0.191390 -0.390000 -0.010973 0.833546 0.432518 -999 -999 -999
0.192290 -0.390000 -0.010984 0.837466 0.436730 -999 -999 -999
0.192910 -0.390000 -0.010992 0.840166 0.434258 -999 -999 -999
0.193190 -0.390000 -0.010996 0.841386 0.431709 -999 -999 -999
0.164590 -0.390000 -0.012063 0.716829 0.312343 -999 -999 -999
0.164360 -0.390000 -0.012081 0.715827 0.296048 -999 -999 -999
0.163820 -0.390000 -0.012124 0.713475 0.294331 -999 -999 -999
0.163440 -0.390000 -0.012155 0.711820 0.294191 -999 -999 -999
0.217890 -0.390000 -0.010541 0.948958 0.024040 -999 -999 -999
0.217040 -0.390000 -0.010328 0.945256 0.013883 -999 -999 -999
0.125810 -0.390000 0.007153 0.547936 -1.624303 -999 -999 -999
0.129470 -0.390000 0.006751 0.563876 -1.677910 -999 -999 -999
0.132440 -0.390000 0.006317 0.576811 -1.693199 -999 -999 -999
0.137750 -0.390000 0.005543 0.599937 -1.721923 -999 -999 -999
0.141480 -0.390000 0.005000 0.616181 -1.271310 -999 -999 -999
0.188140 -0.390000 -0.003352 0.819392 -0.181415 -999 -999 -999
0.189490 -0.390000 -0.003659 0.825272 -0.205945 -999 -999 -999
0.190100 -0.390000 -0.003798 0.827928 -0.221127 -999 -999 -999
0.170170 -0.390000 0.000819 0.741130 -0.397187 -999 -999 -999
0.170680 -0.390000 0.000702 0.743351 -0.644890 -999 -999 -999
0.173260 -0.390000 0.000102 0.754588 -0.452699 -999 -999 -999
0.173590 -0.390000 0.000026 0.756025 -0.483905 -999 -999 -999
0.168610 -0.390000 0.001047 0.734336 -0.344099 -999 -999 -999
0.165180 -0.390000 0.001547 0.719398 -0.394393 -999 -999 -999
0.162610 -0.390000 0.001922 0.708205 -0.468129 -999 -999 -999
0.157530 -0.390000 0.002661 0.686081 -0.193743 -999 -999 -999
0.181350 -0.390000 -0.011055 0.789821 0.389310 -999 -999 -999
0.181450 -0.390000 -0.011050 0.790256 0.391894 -999 -999 -999
0.182280 -0.390000 -0.011010 0.793871 0.410094 -999 -999 -999
0.181250 -0.390000 -0.011060 0.789385 0.388966 -999 -999 -999
0.180420 -0.390000 -0.011100 0.785770 0.410898 -999 -999 -999
0.188680 -0.390000 -0.010937 0.821744 0.422581 -999 -999 -999
0.188280 -0.390000 -0.010932 0.820002 0.424451 -999 -999 -999
0.189120 -0.390000 -0.010943 0.823660 0.424713 -999 -999 -999
0.189580 -0.390000 -0.010949 0.825664 0.438899 -999 -999 -999
0.187780 -0.390000 -0.010925 0.817824 0.437744 -999 -999 -999
0.173890 -0.390000 -0.011416 0.757331 0.357051 -999 -999 -999
0.174090 -0.390000 -0.011407 0.758202 0.357054 -999 -999 -999
0.173670 -0.390000 -0.011427 0.756373 0.361191 -999 -999 -999
0.172960 -0.390000 -0.011461 0.753281 0.381483 -999 -999 -999
0.174820 -0.390000 -0.011371 0.761382 0.381224 -999 -999 -999
0.166290 -0.390000 -0.011927 0.724232 0.296621 -999 -999 -999
0.166910 -0.390000 -0.011877 0.726933 0.317259 -999 -999 -999
0.167680 -0.390000 -0.011816 0.730286 0.324306 -999 -999 -999
0.167330 -0.390000 -0.011844 0.728762 0.314829 -999 -999 -999
0.195180 -0.390000 -0.011022 0.850052 0.441703 -999 -999 -999
0.195900 -0.390000 -0.011032 0.853188 0.455937 -999 -999 -999
0.196700 -0.390000 -0.011042 0.856672 0.484326 -999 -999 -999
0.196810 -0.390000 -0.011044 0.857151 0.486914 -999 -999 -999
0.195000 -0.390000 -0.011020 0.849268 0.440460 -999 -999 -999
0.212360 -0.390000 -0.012248 0.924874 0.573877 -999 -999 -999
0.213540 -0.390000 -0.012410 0.930013 0.458316 -999 -999 -999
0.148700 -0.390000 -0.013504 0.647625 0.182093 -999 -999 -999
0.145850 -0.390000 -0.013777 0.635213 0.196136 -999 -999 -999
0.151040 -0.390000 -0.013278 0.657816 0.213332 -999 -999 -999
0.160730 -0.390000 -0.012371 0.700018 0.280411 -999 -999 -999
0.161400 -0.390000 -0.012318 0.702936 0.280098 -999 -999 -999
0.160590 -0.390000 -0.012383 0.699408 0.278704 -999 -999 -999
0.161500 -0.390000 -0.012309 0.703371 0.289681 -999 -999 -999
0.156490 -0.390000 -0.012754 0.681552 0.246099 -999 -999 -999
0.157640 -0.390000 -0.012643 0.686560 0.254940 -999 -999 -999
0.154660 -0.390000 -0.012930 0.673582 0.240744 -999 -999 -999
0.152450 -0.390000 -0.013143 0.663957 0.228186 -999 -999 -999
0.206170 -0.390000 -0.007615 0.897915 -0.003137 -999 -999 -999
0.207660 -0.390000 -0.007987 0.904405 -0.014981 -999 -999 -999
0.204470 -0.390000 -0.007189 0.890512 -0.057834 -999 -999 -999
0.200320 -0.390000 -0.006152 0.872438 -0.184339 -999 -999 -999
0.198240 -0.390000 -0.005651 0.863379 -0.143966 -999 -999 -999
0.197620 -0.390000 -0.005509 0.860679 -0.143426 -999 -999 -999
0.195980 -0.390000 -0.005136 0.853537 -0.191613 -999 -999 -999
0.194450 -0.390000 -0.004789 0.846873 -0.166052 -999 -999 -999
0.192060 -0.390000 -0.004244 0.836464 -0.149306 -999 -999 -999
0.145600 -0.390000 -0.013801 0.634124 0.194896 -999 -999 -999
0.086227 -0.390000 -0.017517 0.375546 -0.209158 -999 -999 -999
0.183210 -0.390000 -0.010965 0.797921 0.427730 -999 -999 -999
0.183390 -0.390000 -0.010956 0.798705 0.434600 -999 -999 -999
0.183040 -0.390000 -0.010973 0.797181 0.425240 -999 -999 -999
0.186870 -0.390000 -0.010913 0.813861 0.428471 -999 -999 -999
0.186560 -0.390000 -0.010909 0.812511 0.425406 -999 -999 -999
0.187220 -0.390000 -0.010918 0.815385 0.424700 -999 -999 -999
0.172020 -0.390000 -0.011506 0.749187 0.373625 -999 -999 -999
0.172290 -0.390000 -0.011493 0.750363 0.368072 -999 -999 -999
0.168810 -0.390000 -0.011725 0.735207 0.336971 -999 -999 -999
0.167720 -0.390000 -0.011813 0.730460 0.325211 -999 -999 -999
0.168450 -0.390000 -0.011754 0.733639 0.335435 -999 -999 -999
0.209910 -0.390000 -0.011910 0.914204 0.415137 -999 -999 -999
0.212020 -0.390000 -0.012201 0.923393 0.556977 -999 -999 -999
0.209540 -0.390000 -0.011860 0.912592 0.463686 -999 -999 -999
0.159910 -0.390000 -0.012437 0.696447 0.292837 -999 -999 -999
0.159960 -0.390000 -0.012433 0.696664 0.289320 -999 -999 -999
0.199060 -0.390000 -0.005836 0.866950 -0.155949 -999 -999 -999
0.190670 -0.390000 -0.003927 0.830411 -0.201864 -999 -999 -999
0.178940 -0.390000 -0.011172 0.779325 0.357083 -999 -999 -999
0.179480 -0.390000 -0.011146 0.781677 0.370868 -999 -999 -999
0.179460 -0.390000 -0.011147 0.781590 0.371195 -999 -999 -999
0.179510 -0.390000 -0.011144 0.781807 0.371504 -999 -999 -999
0.175750 -0.390000 -0.011326 0.765432 0.353229 -999 -999 -999
0.175880 -0.390000 -0.011320 0.765998 0.358473 -999 -999 -999
0.175620 -0.390000 -0.011333 0.764866 0.358061 -999 -999 -999
0.190490 -0.390000 -0.010961 0.829627 0.429737 -999 -999 -999
0.191010 -0.390000 -0.010968 0.831891 0.428258 -999 -999 -999
0.190010 -0.390000 -0.010954 0.827536 0.422973 -999 -999 -999
0.194100 -0.390000 -0.011008 0.845349 0.455284 -999 -999 -999
0.193450 -0.390000 -0.011000 0.842518 0.436560 -999 -999 -999
0.194800 -0.390000 -0.011017 0.848397 0.441440 -999 -999 -999
0.164860 -0.390000 -0.012041 0.718004 0.313500 -999 -999 -999
0.165370 -0.390000 -0.012001 0.720226 0.300522 -999 -999 -999
0.165850 -0.390000 -0.011962 0.722316 0.309160 -999 -999 -999
0.166140 -0.390000 -0.011939 0.723579 0.295141 -999 -999 -999
0.163050 -0.390000 -0.012186 0.710122 0.290518 -999 -999 -999
0.162880 -0.390000 -0.012200 0.709381 0.286423 -999 -999 -999
0.162010 -0.390000 -0.012269 0.705592 0.290865 -999 -999 -999
0.162280 -0.390000 -0.012248 0.706768 0.282455 -999 -999 -999
0.197760 -0.390000 -0.011056 0.861289 0.510624 -999 -999 -999
0.197810 -0.390000 -0.011057 0.861506 0.505018 -999 -999 -999
0.196900 -0.390000 -0.011045 0.857543 0.484487 -999 -999 -999
0.197650 -0.390000 -0.011055 0.860810 0.505649 -999 -999 -999
0.197710 -0.390000 -0.011055 0.861071 0.507543 -999 -999 -999
0.197850 -0.390000 -0.011059 0.861681 0.527480 -999 -999 -999
0.197940 -0.390000 -0.011065 0.862073 0.501927 -999 -999 -999
0.198440 -0.390000 -0.011098 0.864250 0.497297 -999 -999 -999
0.198540 -0.390000 -0.011105 0.864686 0.506920 -999 -999 -999
0.198650 -0.390000 -0.011112 0.865165 0.501770 -999 -999 -999
0.199110 -0.390000 -0.011142 0.867168 0.465354 -999 -999 -999
0.209090 -0.390000 -0.011798 0.910632 0.595905 -999 -999 -999
0.208870 -0.390000 -0.011783 0.909674 0.498197 -999 -999 -999
0.208520 -0.390000 -0.011760 0.908150 0.715262 -999 -999 -999
0.208640 -0.390000 -0.011768 0.908673 0.512081 -999 -999 -999
0.066405 -0.390000 -0.017053 0.289219 -0.256958 -999 -999 -999
0.200080 -0.390000 -0.011205 0.871393 0.477152 -999 -999 -999
0.200440 -0.390000 -0.011229 0.872960 0.460073 -999 -999 -999
0.199920 -0.390000 -0.011195 0.870696 0.471958 -999 -999 -999
0.199770 -0.390000 -0.011185 0.870043 0.469863 -999 -999 -999
0.199360 -0.390000 -0.011159 0.868257 0.449911 -999 -999 -999
0.206800 -0.390000 -0.011647 0.900659 0.508537 -999 -999 -999
0.206490 -0.390000 -0.011627 0.899309 0.496067 -999 -999 -999
0.207090 -0.390000 -0.011667 0.901922 0.522575 -999 -999 -999
0.199170 -0.390000 -0.011146 0.867429 0.456797 -999 -999 -999
0.199230 -0.390000 -0.011150 0.867691 0.458108 -999 -999 -999
0.207430 -0.390000 -0.011688 0.903403 0.598966 -999 -999 -999
0.207290 -0.390000 -0.011679 0.902793 0.512872 -999 -999 -999
0.207760 -0.390000 -0.011710 0.904840 0.493946 -999 -999 -999
0.207910 -0.390000 -0.011720 0.905493 0.466476 -999 -999 -999
0.207490 -0.390000 -0.011693 0.903664 0.601084 -999 -999 -999
0.208430 -0.390000 -0.011754 0.907758 0.731132 -999 -999 -999
0.208180 -0.390000 -0.011738 0.906669 0.713252 -999 -999 -999
0.208090 -0.390000 -0.011732 0.906277 0.588861 -999 -999 -999
0.202430 -0.390000 -0.011360 0.881627 0.482154 -999 -999 -999
0.202210 -0.390000 -0.011346 0.880669 0.477662 -999 -999 -999
0.202920 -0.390000 -0.011393 0.883761 0.481721 -999 -999 -999
0.203100 -0.390000 -0.011404 0.884545 0.474991 -999 -999 -999
0.202670 -0.390000 -0.011376 0.882672 0.460759 -999 -999 -999
0.203770 -0.390000 -0.011448 0.887463 0.461678 -999 -999 -999
0.203640 -0.390000 -0.011439 0.886897 0.457660 -999 -999 -999
0.204050 -0.390000 -0.011466 0.888683 0.478092 -999 -999 -999
0.204430 -0.390000 -0.011492 0.890337 0.512594 -999 -999 -999
0.203230 -0.390000 -0.011413 0.885111 0.463714 -999 -999 -999
0.203360 -0.390000 -0.011421 0.885677 0.452316 -999 -999 -999
0.201100 -0.390000 -0.011273 0.875835 0.472387 -999 -999 -999
0.200790 -0.390000 -0.011252 0.874485 0.463815 -999 -999 -999
0.201290 -0.390000 -0.011286 0.876662 0.462025 -999 -999 -999
0.201500 -0.390000 -0.011299 0.877577 0.469690 -999 -999 -999
0.201770 -0.390000 -0.011317 0.878753 0.468523 -999 -999 -999
0.200520 -0.390000 -0.011235 0.873309 0.456098 -999 -999 -999
0.200610 -0.390000 -0.011240 0.873701 0.459317 -999 -999 -999
0.205760 -0.390000 -0.011579 0.896130 0.487647 -999 -999 -999
0.205420 -0.390000 -0.011557 0.894649 0.494128 -999 -999 -999
0.205100 -0.390000 -0.011535 0.893255 0.437072 -999 -999 -999
0.205060 -0.390000 -0.011533 0.893081 0.439041 -999 -999 -999
0.206100 -0.390000 -0.011601 0.897611 0.580513 -999 -999 -999
0.205930 -0.390000 -0.011590 0.896870 0.493289 -999 -999 -999
0.206110 -0.390000 -0.011602 0.897654 0.578205 -999 -999 -999
0.206430 -0.390000 -0.011623 0.899048 0.491581 -999 -999 -999
0.204580 -0.390000 -0.011501 0.890991 0.514910 -999 -999 -999
0.204740 -0.390000 -0.011512 0.891688 0.424562 -999 -999 -999
0.201980 -0.390000 -0.011331 0.879667 0.484534 -999 -999 -999
0.201870 -0.390000 -0.011324 0.879188 0.469881 -999 -999 -999







