TITLE = "023.02"


# Column       1     2     3     4       5      6      7       8       9
VARIABLES =   "X"   "Y"   "Z"   "CP"   "CF"   "CFX"   "CFY"   "CFZ"   "X/C" 

#---------------------------------------------------
#   PARTICIPANT, GRID, AND SOLVER INFORMATION
#---------------------------------------------------
DATASETAUXDATA ParticipantID   = "023.02"
DATASETAUXDATA SubmissionDate  = "26/10/2024"
DATASETAUXDATA Name            = "Baptiste ARNOULD"
DATASETAUXDATA Email           = "baptiste.arnould@polymtl.ca"
DATASETAUXDATA Institution     = "Polytechnique Montreal"
DATASETAUXDATA SolverName      = "CHAMPS"
DATASETAUXDATA BasicAlgorithm  = "RANS"
DATASETAUXDATA TurbulenceModel = "SA"
DATASETAUXDATA GridId          = "Cadence_Grids.REV01 Unstructured"
DATASETAUXDATA Discretization  = "Finite volume"
DATASETAUXDATA Order           = "2"
DATASETAUXDATA DistanceCalc    = "EIKONAL_2N_ORDER"
DATASETAUXDATA Notes           = "X/C is the last variable instead of beeing the 4th one, therefore Cp is the 4th variable, CF is the 5th etc."



ZONE T="023.02 - Mesh 4 - AOA 1.50 - WING SECTION  1"
AUXDATA GridLevel       = "4"
AUXDATA Mach            = "0.73"
AUXDATA Re              = "3000000.0"
AUXDATA Alpha           = "1.50"
AUXDATA Tstatic         = "273.0"
AUXDATA CLtotal         = "8.105278425796e-01"
AUXDATA Eta             = "0.5"
AUXDATA Dt              = "-"
AUXDATA CtuStart        = "-"
AUXDATA CtuAvg          = "-"
AUXDATA GridFileName    = "ONERA-OAT15A_230mmChord_780mmSpan_upZ_2024_09_05_Unstructured_Level-4.cgns"

 2.300000000000E+02 -1.150000000000E+01 5.749310000000E-01 7.694466809437E-02 3.631416212196E-04 2.645537635023E-04 -1.140901026757E-20 -1.271225470315E-04 1.000000000000E+00
 2.300000000000E+02 -1.150000000000E+01 5.270488333333E-01 7.447320210860E-02 5.633594906241E-04 -4.235944503139E-05 -3.091051051961E-20 5.418055902527E-04 1.000000000000E+00
 2.300000000000E+02 -1.150000000000E+01 4.791666666667E-01 9.329874776391E-02 6.703638571631E-04 -1.178000608879E-05 -3.194800362611E-20 6.702566666914E-04 1.000000000000E+00
 2.300000000000E+02 -1.150000000000E+01 4.312845000000E-01 9.147150287309E-02 2.122605077779E-04 -1.463157987473E-06 -2.364311989897E-20 2.122515403925E-04 1.000000000000E+00
 2.300000000000E+02 -1.150000000000E+01 3.834023333333E-01 8.991467543121E-02 1.661721977654E-04 1.249031865333E-06 -1.392451208026E-20 1.661654622714E-04 1.000000000000E+00
 2.300000000000E+02 -1.150000000000E+01 3.355201666667E-01 8.903399913614E-02 2.617532889368E-04 2.438810163319E-06 -3.906097065687E-21 2.617414741286E-04 1.000000000000E+00
 2.300000000000E+02 -1.150000000000E+01 2.876380000000E-01 8.900945873076E-02 4.044245164212E-04 2.449032957254E-06 1.915772718181E-22 4.044166200604E-04 1.000000000000E+00
 2.300000000000E+02 -1.150000000000E+01 2.397558333333E-01 8.952134145234E-02 5.339540509301E-04 1.930311071444E-06 6.376831402711E-21 5.339502751854E-04 1.000000000000E+00
 2.300000000000E+02 -1.150000000000E+01 1.918736666667E-01 9.038556960495E-02 6.256477247272E-04 1.182023629151E-06 1.522762130021E-20 6.256464310230E-04 1.000000000000E+00
 2.300000000000E+02 -1.150000000000E+01 1.439915000000E-01 9.149795154872E-02 6.697472584186E-04 3.433913599394E-07 3.043134880780E-20 6.697470266080E-04 1.000000000000E+00
 2.300000000000E+02 -1.150000000000E+01 9.610933333333E-02 9.277703672641E-02 6.630284382833E-04 -5.261700770052E-07 2.325720893020E-20 6.630280777139E-04 1.000000000000E+00
 2.300000000000E+02 -1.150000000000E+01 4.822716666667E-02 9.411718907489E-02 6.059298323513E-04 -1.365693139936E-06 9.612343009726E-21 6.059280893511E-04 1.000000000000E+00
 2.300000000000E+02 -1.150000000000E+01 3.450000000000E-04 9.538805556216E-02 5.024163522832E-04 -2.111600723962E-06 8.436261851705E-21 5.024115444577E-04 1.000000000000E+00
 2.300000000000E+02 -1.150000000000E+01 -4.753716666667E-02 9.645337511050E-02 3.596389044069E-04 -2.712888379943E-06 5.293369117692E-21 3.596275805692E-04 1.000000000000E+00
 2.300000000000E+02 -1.150000000000E+01 -9.541933333333E-02 9.718804683249E-02 1.872945961952E-04 -3.130326588011E-06 6.759913446340E-21 1.872582530061E-04 1.000000000000E+00
 2.300000000000E+02 -1.150000000000E+01 -1.433015000000E-01 9.748828504838E-02 9.771010833053E-05 -3.321410056137E-06 8.020614648341E-21 -2.626549632996E-06 1.000000000000E+00
 2.300000000000E+02 -1.150000000000E+01 -1.911836666667E-01 9.728324028985E-02 1.951110868552E-04 -3.234854962918E-06 4.160803222149E-21 -1.950746740477E-04 1.000000000000E+00
 2.300000000000E+02 -1.150000000000E+01 -2.390658333333E-01 9.655642234072E-02 3.718236646434E-04 -2.814278066349E-06 5.723267530064E-21 -3.718118143578E-04 1.000000000000E+00
 2.300000000000E+02 -1.150000000000E+01 -2.869480000000E-01 9.541965078498E-02 5.146132043419E-04 -2.092151038509E-06 4.138188599754E-21 -5.146085112618E-04 1.000000000000E+00
 2.300000000000E+02 -1.150000000000E+01 -3.348301666667E-01 9.423408849817E-02 6.181499244370E-04 -1.261806457072E-06 9.119688365209E-21 -6.181484362836E-04 1.000000000000E+00
 2.300000000000E+02 -1.150000000000E+01 -3.827123333333E-01 9.394925010664E-02 7.453647268347E-04 -7.918139438149E-07 2.026495137564E-20 -7.453642908699E-04 1.000000000000E+00
 2.300000000000E+02 -1.150000000000E+01 -4.305945000000E-01 9.472054990225E-02 1.078130214747E-03 5.837608089504E-07 3.090482851370E-20 -1.078129374238E-03 1.000000000000E+00
 2.300000000000E+02 -1.150000000000E+01 -4.784766666667E-01 9.847993219615E-02 3.010803823693E-03 -5.794752383925E-05 3.544610798747E-20 -3.010064229011E-03 1.000000000000E+00
 2.300000000000E+02 -1.150000000000E+01 -5.263588333333E-01 2.227104494383E-02 2.783663541009E-03 -3.540967621264E-04 2.168010847932E-20 -2.667802844088E-03 1.000000000000E+00
 2.300000000000E+02 -1.150000000000E+01 -5.742410000000E-01 3.572039642899E-02 1.734125363296E-03 9.754157111162E-04 3.634790040674E-21 -5.529945065106E-05 1.000000000000E+00
 2.299492586772E+02 -1.150000000000E+01 -5.684160157356E-01 1.281893294084E-01 3.077049600259E-03 3.041297147639E-03 9.742857511829E-21 9.412783744185E-05 9.997793855531E-01
 2.298959801885E+02 -1.150000000000E+01 -5.623007186506E-01 1.323168153810E-01 3.316812524779E-03 3.296492409066E-03 4.672500669566E-20 -3.635102828537E-04 9.995477399501E-01
 2.298400375517E+02 -1.150000000000E+01 -5.558817561516E-01 1.389397877961E-01 3.271486708956E-03 3.247779699217E-03 5.110119422855E-20 -3.928516906647E-04 9.993045110942E-01
 2.297812974047E+02 -1.150000000000E+01 -5.491453954244E-01 1.430661655384E-01 3.546353161082E-03 3.522862758376E-03 3.394031401230E-20 -4.074897736064E-04 9.990491191510E-01
 2.297196196810E+02 -1.150000000000E+01 -5.420775603944E-01 1.469136008284E-01 3.623202619946E-03 3.599664576370E-03 5.744910256704E-20 -4.123246533492E-04 9.987809551348E-01
 2.296548572669E+02 -1.150000000000E+01 -5.346638804507E-01 1.504359134621E-01 3.595270772819E-03 3.572040359317E-03 6.166705029528E-20 -4.080434490682E-04 9.984993794214E-01
 2.295868556413E+02 -1.150000000000E+01 -5.268897531984E-01 1.539090202924E-01 3.539882897890E-03 3.517089267244E-03 1.829936770412E-20 -4.010659722086E-04 9.982037201798E-01
 2.295154524955E+02 -1.150000000000E+01 -5.187404238889E-01 1.573810423714E-01 3.482096454350E-03 3.459753544785E-03 6.384457665012E-21 -3.938286210718E-04 9.978932717196E-01
 2.294404773322E+02 -1.150000000000E+01 -5.102010846356E-01 1.608461165263E-01 3.427645943581E-03 3.405746704946E-03 5.560476696963E-21 -3.868409016193E-04 9.975672927489E-01
 2.293617510433E+02 -1.150000000000E+01 -5.012569970446E-01 1.642827018876E-01 3.376467485653E-03 3.355006195294E-03 -2.697307331371E-20 -3.800866086475E-04 9.972250045359E-01
 2.292790844330E+02 -1.150000000000E+01 -4.918930709078E-01 1.676812590417E-01 3.328076270890E-03 3.307047501637E-03 -1.434422685694E-20 -3.735346563556E-04 9.968655844914E-01
 2.291922810868E+02 -1.150000000000E+01 -4.820926143391E-01 1.710420738062E-01 3.281947409179E-03 3.261346134931E-03 -1.092495874774E-20 -3.671509008262E-04 9.964881786382E-01
 2.291011337496E+02 -1.150000000000E+01 -4.718380161790E-01 1.743695385929E-01 3.237633201468E-03 3.217455356741E-03 -8.413975669634E-20 -3.609007022152E-04 9.960918858678E-01
 2.290054247106E+02 -1.150000000000E+01 -4.611113651560E-01 1.776680516379E-01 3.194901851982E-03 3.175145174707E-03 -7.149063225482E-20 -3.547540532378E-04 9.956757596115E-01
 2.289049253025E+02 -1.150000000000E+01 -4.498945222278E-01 1.809409936467E-01 3.153746779492E-03 3.134408715553E-03 -4.909238970912E-20 -3.487121535138E-04 9.952388056628E-01
 2.287993946899E+02 -1.150000000000E+01 -4.381690860011E-01 1.841917855108E-01 3.114407564872E-03 3.095481994906E-03 -6.127682515429E-20 -3.428192901984E-04 9.947799769125E-01
 2.286885805740E+02 -1.150000000000E+01 -4.259151957061E-01 1.874251871292E-01 3.076939035838E-03 3.058416997949E-03 -1.012242478921E-20 -3.371032970874E-04 9.942981764089E-01
 2.285722203729E+02 -1.150000000000E+01 -4.131110663735E-01 1.906472500805E-01 3.041062445710E-03 3.022934337313E-03 3.236530082783E-20 -3.315540886809E-04 9.937922624907E-01
 2.284500338865E+02 -1.150000000000E+01 -3.997334385820E-01 1.938645092310E-01 3.006552782158E-03 2.988809100905E-03 6.976117425752E-20 -3.261580935678E-04 9.932610168978E-01
 2.283217294130E+02 -1.150000000000E+01 -3.857583383902E-01 1.970834312591E-01 2.973284646960E-03 2.955916462633E-03 2.410956475058E-20 -3.209030384342E-04 9.927031713607E-01
 2.281870030999E+02 -1.150000000000E+01 -3.711609971663E-01 2.003100311818E-01 2.941000185127E-03 2.924000591126E-03 -1.790314347323E-20 -3.157561024622E-04 9.921174047822E-01
 2.280455298489E+02 -1.150000000000E+01 -3.559151116174E-01 2.035493145491E-01 2.909409359846E-03 2.892774035254E-03 -2.381231979340E-20 -3.106774288401E-04 9.915023036907E-01
 2.278969755747E+02 -1.150000000000E+01 -3.399953542166E-01 2.068051415241E-01 2.878436369246E-03 2.862162315611E-03 -4.332487671736E-20 -3.056501892078E-04 9.908564155421E-01
 2.277409822306E+02 -1.150000000000E+01 -3.233752380050E-01 2.100808423757E-01 2.848105982576E-03 2.832190660595E-03 -4.150174590683E-20 -3.006708199141E-04 9.901781836114E-01
 2.275771781888E+02 -1.150000000000E+01 -3.060279610635E-01 2.133798012705E-01 2.818379189957E-03 2.802820188576E-03 -4.340896356941E-20 -2.957353657010E-04 9.894659921251E-01
 2.274051714939E+02 -1.150000000000E+01 -2.879257584904E-01 2.167054525755E-01 2.789092313568E-03 2.773888396302E-03 -3.624331241862E-20 -2.908233365596E-04 9.887181369300E-01
 2.272245528630E+02 -1.150000000000E+01 -2.690403909901E-01 2.200606176108E-01 2.759988035874E-03 2.745140203620E-03 -1.763461938138E-20 -2.858990764284E-04 9.879328385346E-01
 2.270348888249E+02 -1.150000000000E+01 -2.493438220570E-01 2.234469052473E-01 2.730952453673E-03 2.716463236997E-03 2.649863852661E-21 -2.809408856656E-04 9.871082122823E-01
 2.268357264301E+02 -1.150000000000E+01 -2.288088835694E-01 2.268648723833E-01 2.702005965949E-03 2.687878546939E-03 -6.085814070483E-20 -2.759421593992E-04 9.862422888266E-01
 2.266265893655E+02 -1.150000000000E+01 -2.074083254763E-01 2.303145152319E-01 2.673125415173E-03 2.659363328591E-03 -4.752427063505E-20 -2.708966756078E-04 9.853329972413E-01
 2.264069766498E+02 -1.150000000000E+01 -1.851149103082E-01 2.337957767131E-01 2.644358164076E-03 2.630964183051E-03 -1.553904362043E-20 -2.658125802064E-04 9.843781593471E-01
 2.261763651104E+02 -1.150000000000E+01 -1.619017845637E-01 2.373093501614E-01 2.615857054480E-03 2.602832226037E-03 -7.823397542599E-20 -2.607129110551E-04 9.833755004802E-01
 2.259342009346E+02 -1.150000000000E+01 -1.377403641301E-01 2.408572974806E-01 2.587656983847E-03 2.575001135848E-03 -1.534987330853E-19 -2.556099452831E-04 9.823226127590E-01
 2.256799056632E+02 -1.150000000000E+01 -1.126013231074E-01 2.444429181162E-01 2.559708360072E-03 2.547420586067E-03 -1.756411936019E-19 -2.505071230715E-04 9.812169811444E-01
 2.254128710623E+02 -1.150000000000E+01 -8.645502731078E-02 2.480702845121E-01 2.531947733110E-03 2.520027100819E-03 -9.787790797014E-20 -2.454001755609E-04 9.800559611403E-01
 2.251324577981E+02 -1.150000000000E+01 -5.927158758738E-02 2.517431661230E-01 2.504081365093E-03 2.492529158104E-03 3.964630010626E-20 -2.402505068014E-04 9.788367730351E-01
 2.248379967904E+02 -1.150000000000E+01 -3.102280084425E-02 2.554634646497E-01 2.475826818201E-03 2.464646834763E-03 1.581469761168E-19 -2.350164591599E-04 9.775565077841E-01
 2.245287812394E+02 -1.150000000000E+01 -1.684948688119E-03 2.592309130487E-01 2.447263937449E-03 2.436460703002E-03 2.804625348060E-19 -2.296915580528E-04 9.762120923453E-01
 2.242040712466E+02 -1.150000000000E+01 2.876287627424E-02 2.630441436009E-01 2.418512057100E-03 2.408090109326E-03 3.296113892212E-19 -2.242780468601E-04 9.748003097677E-01
 2.238630890416E+02 -1.150000000000E+01 6.033920444870E-02 2.669017496594E-01 2.389598058202E-03 2.379561392523E-03 1.941784424048E-19 -2.187792474191E-04 9.733177784420E-01
 2.235050177846E+02 -1.150000000000E+01 9.305993272470E-02 2.708029171075E-01 2.360558069585E-03 2.350909916345E-03 -1.820170080044E-20 -2.132011103132E-04 9.717609468895E-01
 2.231289995976E+02 -1.150000000000E+01 1.269388503849E-01 2.747475451654E-01 2.331362482297E-03 2.322105561285E-03 -3.001915887445E-19 -2.075436811002E-04 9.701260852068E-01
 2.227341335344E+02 -1.150000000000E+01 1.619864973153E-01 2.787359662307E-01 2.301959385488E-03 2.293096064599E-03 -2.619371584848E-19 -2.018040652711E-04 9.684092762367E-01
 2.223194733459E+02 -1.150000000000E+01 1.982093391698E-01 2.827685877525E-01 2.272306984948E-03 2.263839449837E-03 3.053403040839E-20 -1.959776327859E-04 9.666064058518E-01
 2.218840251869E+02 -1.150000000000E+01 2.356087834741E-01 2.868457158744E-01 2.242390762275E-03 2.234320916018E-03 7.668300442996E-20 -1.900616734873E-04 9.647131529865E-01
 2.214267451846E+02 -1.150000000000E+01 2.741798813801E-01 2.909677135271E-01 2.212249960633E-03 2.204579151164E-03 1.245836525843E-21 -1.840584617990E-04 9.627249790635E-01
 2.209465369795E+02 -1.150000000000E+01 3.139109782454E-01 2.951349827425E-01 2.181809930402E-03 2.174539528734E-03 -1.299102158942E-19 -1.779579912827E-04 9.606371173024E-01
 2.204422490782E+02 -1.150000000000E+01 3.547825000669E-01 2.993473160834E-01 2.150890382641E-03 2.144022246657E-03 -1.861501268738E-19 -1.717394176577E-04 9.584445612097E-01
 2.199126718374E+02 -1.150000000000E+01 3.967625631839E-01 3.036033341182E-01 2.119481650567E-03 2.113017467369E-03 -2.679041084137E-19 -1.653957352311E-04 9.561420514669E-01
 2.193565346269E+02 -1.150000000000E+01 4.398061122921E-01 3.079009049549E-01 2.087645631676E-03 2.081586561521E-03 -4.107204020050E-19 -1.589259413488E-04 9.537240635950E-01
 2.187725029151E+02 -1.150000000000E+01 4.838547183446E-01 3.122365925518E-01 2.055336186408E-03 2.049682910410E-03 -4.270791057552E-19 -1.523228391114E-04 9.511847952832E-01
 2.181591749906E+02 -1.150000000000E+01 5.288333479947E-01 3.166068967061E-01 2.022555395969E-03 2.017307766742E-03 -4.648146364958E-19 -1.455842406027E-04 9.485181521329E-01
 2.175150786107E+02 -1.150000000000E+01 5.746477821658E-01 3.210087842757E-01 1.989297840233E-03 1.984454936829E-03 -2.614058061554E-19 -1.387052593894E-04 9.457177330899E-01
 2.168386675737E+02 -1.150000000000E+01 6.211827487150E-01 3.254379948288E-01 1.955459358499E-03 1.951019699048E-03 -1.577196672519E-19 -1.316723898677E-04 9.427768155377E-01
 2.161283178255E+02 -1.150000000000E+01 6.682951786309E-01 3.298895711438E-01 1.921059345224E-03 1.917020390544E-03 -3.108834883928E-19 -1.244808826157E-04 9.396883383717E-01
 2.153823236516E+02 -1.150000000000E+01 7.158101707363E-01 3.343600685678E-01 1.885959740031E-03 1.882318164819E-03 -2.295565328903E-19 -1.171133223253E-04 9.364448854416E-01
 2.145988938279E+02 -1.150000000000E+01 7.635181711991E-01 3.388411890652E-01 1.849385535760E-03 1.846138019412E-03 5.865862753026E-20 -1.095156250232E-04 9.330386688169E-01
 2.137761471639E+02 -1.150000000000E+01 8.111640737295E-01 3.433162309437E-01 1.809687901683E-03 1.806832347656E-03 2.592125257270E-19 -1.015812694693E-04 9.294615094084E-01
 2.129121084218E+02 -1.150000000000E+01 8.584435403695E-01 3.477882903221E-01 1.767315830142E-03 1.764843400884E-03 -1.631683485164E-20 -9.340311669018E-05 9.257048192251E-01
 2.120047038671E+02 -1.150000000000E+01 9.049944005994E-01 3.522252763447E-01 1.727603808739E-03 1.725491380689E-03 -1.905200905812E-19 -8.535309231496E-05 9.217595820309E-01
 2.110857481681E+02 -1.150000000000E+01 9.488284320639E-01 3.565154358940E-01 1.692871102799E-03 1.691091898046E-03 -1.489323057169E-19 -7.753043432252E-05 9.177641224700E-01
 2.101666443671E+02 -1.150000000000E+01 9.892635278663E-01 3.605394152627E-01 1.659087484608E-03 1.657616568958E-03 -2.161783837253E-19 -6.977590920790E-05 9.137680189872E-01
 2.092473984679E+02 -1.150000000000E+01 1.026215963023E+00 3.643026210526E-01 1.624025653892E-03 1.622835863226E-03 -1.378648034039E-19 -6.207372628203E-05 9.097712976865E-01
 2.083280215601E+02 -1.150000000000E+01 1.059599664611E+00 3.678126996543E-01 1.588688762249E-03 1.587751118362E-03 3.236570599647E-20 -5.448279785489E-05 9.057740067829E-01
 2.074085245615E+02 -1.150000000000E+01 1.089324995403E+00 3.710713261015E-01 1.554084575860E-03 1.553369332906E-03 1.034436205091E-19 -4.703763981177E-05 9.017761937456E-01
 2.064889193432E+02 -1.150000000000E+01 1.115298406633E+00 3.740940810138E-01 1.520474754251E-03 1.519951862378E-03 -6.291266930646E-21 -3.974574011985E-05 8.977779101879E-01
 2.055692189331E+02 -1.150000000000E+01 1.137427067327E+00 3.768674959277E-01 1.487885881883E-03 1.487525152717E-03 6.651286389039E-20 -3.260678703640E-05 8.937792127527E-01
 2.046494376174E+02 -1.150000000000E+01 1.155623147995E+00 3.794043417272E-01 1.456222067047E-03 1.455993173588E-03 1.264826068469E-19 -2.562176965750E-05 8.897801635540E-01
 2.037295908322E+02 -1.150000000000E+01 1.169800494986E+00 3.816923600457E-01 1.425490919650E-03 1.425363484703E-03 3.002684516593E-20 -1.879415297089E-05 8.857808297053E-01
 2.028096951851E+02 -1.150000000000E+01 1.179877453266E+00 3.837333751204E-01 1.395873041618E-03 1.395816755083E-03 8.457528602278E-21 -1.212886940299E-05 8.817812834135E-01
 2.018897684312E+02 -1.150000000000E+01 1.185781098593E+00 3.855300444743E-01 1.367288936409E-03 1.367273727030E-03 -1.140434137045E-20 -5.625518868883E-06 8.777816018748E-01
 2.009698293193E+02 -1.150000000000E+01 1.187439699025E+00 3.870836889651E-01 1.339737062675E-03 1.339733192809E-03 4.624105581447E-20 7.173915827401E-07 8.737818666055E-01
 2.000498975757E+02 -1.150000000000E+01 1.184785827315E+00 3.884045584936E-01 1.313025166788E-03 1.313003309839E-03 7.574589016697E-20 6.902483570023E-06 8.697821633727E-01
 1.991299938462E+02 -1.150000000000E+01 1.177756199961E+00 3.894754569129E-01 1.287282272037E-03 1.287213613556E-03 -1.735187137059E-20 1.292886180004E-05 8.657825819401E-01
 1.982101396465E+02 -1.150000000000E+01 1.166290077072E+00 3.903043741834E-01 1.262975984709E-03 1.262832416534E-03 -6.947210446905E-20 1.879400988763E-05 8.617832158542E-01
 1.972903569423E+02 -1.150000000000E+01 1.150351122068E+00 3.908842416216E-01 1.239966200048E-03 1.239720536551E-03 -1.415435498357E-20 2.449450437261E-05 8.577841606186E-01
 1.963706679276E+02 -1.150000000000E+01 1.129917356981E+00 3.912174619315E-01 1.218023833208E-03 1.217650041739E-03 1.371174744943E-19 3.002517363767E-05 8.537855127289E-01
 1.954510950823E+02 -1.150000000000E+01 1.104968343229E+00 3.913011711967E-01 1.197273627435E-03 1.196746659090E-03 3.518622445447E-19 3.539615050097E-05 8.497873699231E-01
 1.945316608918E+02 -1.150000000000E+01 1.075493054499E+00 3.911388773581E-01 1.177805425489E-03 1.177101136163E-03 1.000320239314E-19 4.062149314311E-05 8.457898299644E-01
 1.936123878702E+02 -1.150000000000E+01 1.041484475999E+00 3.907435187392E-01 1.159649298417E-03 1.158744597915E-03 -1.420512519459E-19 4.570873802372E-05 8.417929907401E-01
 1.926932984764E+02 -1.150000000000E+01 1.002939538183E+00 3.901075268974E-01 1.142955028484E-03 1.141827821825E-03 -6.298255976324E-20 5.067091309655E-05 8.377969498974E-01
 1.917744141372E+02 -1.150000000000E+01 9.598783674195E-01 3.892296969681E-01 1.127662272208E-03 1.126291642705E-03 -1.095501882534E-19 5.551345680808E-05 8.338018005967E-01
 1.908557555673E+02 -1.150000000000E+01 9.123295684063E-01 3.881244095568E-01 1.113816120590E-03 1.112182428501E-03 -1.005976255630E-19 6.024391137138E-05 8.298076329012E-01
 1.899373428401E+02 -1.150000000000E+01 8.603258342467E-01 3.868046618009E-01 1.101539225458E-03 1.099623911541E-03 -6.704726556548E-20 6.487652720670E-05 8.258145340874E-01
 1.890191940562E+02 -1.150000000000E+01 8.039244251861E-01 3.852634784446E-01 1.090617572746E-03 1.088403615662E-03 -2.194877240495E-20 6.940921020713E-05 8.218225828531E-01
 1.881013259165E+02 -1.150000000000E+01 7.431916950264E-01 3.835116029995E-01 1.080857874281E-03 1.078329880979E-03 1.857011519206E-19 7.383842375045E-05 8.178318518108E-01
 1.871837541362E+02 -1.150000000000E+01 6.781948487668E-01 3.815463347708E-01 1.072300850522E-03 1.069444125368E-03 -5.003962917578E-20 7.818171790381E-05 8.138424092878E-01
 1.862664930262E+02 -1.150000000000E+01 6.090074690108E-01 3.793701667880E-01 1.064974087883E-03 1.061774452958E-03 -3.531590792431E-19 8.245671077906E-05 8.098543175051E-01
 1.853495556849E+02 -1.150000000000E+01 5.357058954162E-01 3.769892667769E-01 1.058964344105E-03 1.055408214210E-03 4.050332673130E-19 8.668085274979E-05 8.058676334127E-01
 1.844329540120E+02 -1.150000000000E+01 4.583686249946E-01 3.743992167166E-01 1.054629335810E-03 1.050702911288E-03 8.086186554784E-19 9.089174049576E-05 8.018824087479E-01
 1.835166968744E+02 -1.150000000000E+01 3.770967179090E-01 3.716089283143E-01 1.051985550383E-03 1.047675955017E-03 -2.857033016859E-19 9.509930177923E-05 7.978986820628E-01
 1.826007906371E+02 -1.150000000000E+01 2.920043575494E-01 3.686356767034E-01 1.050576777889E-03 1.045873918692E-03 -2.923657464465E-19 9.927131650528E-05 7.939164810308E-01
 1.816852402311E+02 -1.150000000000E+01 2.032058576984E-01 3.654711440782E-01 1.050274676661E-03 1.045169476199E-03 4.773093431156E-19 1.034089977908E-04 7.899358270919E-01
 1.807700490536E+02 -1.150000000000E+01 1.108170196007E-01 3.621173098337E-01 1.051300369264E-03 1.045782925343E-03 5.518055456013E-19 1.075479297484E-04 7.859567350157E-01
 1.798552190092E+02 -1.150000000000E+01 1.495492364019E-02 3.585894783425E-01 1.053672749434E-03 1.047733255225E-03 8.821856692305E-19 1.117029722901E-04 7.819792130834E-01
 1.789407506685E+02 -1.150000000000E+01 -8.426333794657E-02 3.548870773478E-01 1.057460180339E-03 1.051088671443E-03 1.800228557904E-19 1.158928032687E-04 7.780032637761E-01
 1.780266428399E+02 -1.150000000000E+01 -1.867164637461E-01 3.510311235911E-01 1.062534475491E-03 1.055722183856E-03 -2.694621001308E-19 1.201121061790E-04 7.740288819124E-01
 1.771128923596E+02 -1.150000000000E+01 -2.922772262723E-01 3.470100732527E-01 1.068672043519E-03 1.061412105787E-03 6.681980732655E-19 1.243432355549E-04 7.700560537373E-01
 1.761994947239E+02 -1.150000000000E+01 -4.008180859291E-01 3.428296539042E-01 1.076022179957E-03 1.068307206369E-03 8.310406379381E-19 1.286103488565E-04 7.660847596690E-01
 1.752864441219E+02 -1.150000000000E+01 -5.122110610539E-01 3.385083893304E-01 1.084454160018E-03 1.076278105951E-03 4.115496762630E-19 1.329046591444E-04 7.621149744430E-01
 1.743737333681E+02 -1.150000000000E+01 -6.263268223780E-01 3.340255708933E-01 1.093981760397E-03 1.085338839501E-03 -4.778246004446E-19 1.372343933077E-04 7.581466668176E-01
 1.734613533035E+02 -1.150000000000E+01 -7.430360457059E-01 3.294030553653E-01 1.104768368273E-03 1.095651950397E-03 -1.382466982787E-18 1.416252965561E-04 7.541797969718E-01
 1.725492968471E+02 -1.150000000000E+01 -8.622091046841E-01 3.246479799672E-01 1.116678869386E-03 1.107083811493E-03 -1.273160230117E-18 1.460653564150E-04 7.502143341177E-01
 1.716375510923E+02 -1.150000000000E+01 -9.837169610885E-01 3.197657290232E-01 1.129620022872E-03 1.119542509997E-03 -4.451506240384E-19 1.505459975643E-04 7.462502221403E-01
 1.707261053114E+02 -1.150000000000E+01 -1.107430235652E+00 3.147550005164E-01 1.143542506912E-03 1.132979540497E-03 -4.740780405537E-19 1.550649027232E-04 7.422874143973E-01
 1.698149471420E+02 -1.150000000000E+01 -1.233220428803E+00 3.096269014129E-01 1.158377916322E-03 1.147327186169E-03 -1.354167535226E-18 1.596188430818E-04 7.383258571390E-01
 1.689040644860E+02 -1.150000000000E+01 -1.360967269175E+00 3.043958544703E-01 1.173975834068E-03 1.162436448048E-03 -1.134637864192E-18 1.641930389328E-04 7.343654977651E-01
 1.679934452510E+02 -1.150000000000E+01 -1.490556071918E+00 2.990497015802E-01 1.190438423061E-03 1.178408728870E-03 -8.514555681518E-19 1.688053061382E-04 7.304062836999E-01
 1.670830766733E+02 -1.150000000000E+01 -1.621872390992E+00 2.936066737353E-01 1.207780462947E-03 1.195259008386E-03 -9.357525397054E-19 1.734600779457E-04 7.264481594493E-01
 1.661729456278E+02 -1.150000000000E+01 -1.754803837244E+00 2.880652600292E-01 1.225865137859E-03 1.212852587990E-03 7.900135987636E-19 1.781373319252E-04 7.224910679468E-01
 1.652630388066E+02 -1.150000000000E+01 -1.889240908322E+00 2.824297825832E-01 1.244774955187E-03 1.231271724649E-03 2.205759422228E-18 1.828488853189E-04 7.185349513329E-01
 1.643533420815E+02 -1.150000000000E+01 -2.025074440917E+00 2.767101321367E-01 1.264384675382E-03 1.250392914529E-03 9.282401157531E-19 1.875776119487E-04 7.145797481806E-01
 1.634438424327E+02 -1.150000000000E+01 -2.162197613456E+00 2.709083569336E-01 1.284576458656E-03 1.270099970323E-03 -3.486335637469E-19 1.923071370552E-04 7.106254018815E-01
 1.625345257594E+02 -1.150000000000E+01 -2.300512033178E+00 2.650370391118E-01 1.305380606759E-03 1.290423122604E-03 3.348013780344E-19 1.970433361328E-04 7.066718511279E-01
 1.616253790657E+02 -1.150000000000E+01 -2.439920840548E+00 2.590892358287E-01 1.326786893708E-03 1.311352554984E-03 5.868152468554E-19 2.017855391525E-04 7.027190394161E-01
 1.607163888560E+02 -1.150000000000E+01 -2.580328295700E+00 2.530798553191E-01 1.348662573062E-03 1.332757118514E-03 -8.465708195740E-19 2.065157137949E-04 6.987669080697E-01
 1.598075426779E+02 -1.150000000000E+01 -2.721647439725E+00 2.470131137048E-01 1.370913166312E-03 1.354543584879E-03 -1.356752369797E-18 2.112207264969E-04 6.948154029476E-01
 1.588988285095E+02 -1.150000000000E+01 -2.863795787194E+00 2.408860004030E-01 1.393646964277E-03 1.376819201819E-03 -5.231670320268E-19 2.159176175667E-04 6.908644717804E-01
 1.579902333194E+02 -1.150000000000E+01 -3.006691146883E+00 2.347065673274E-01 1.416813671004E-03 1.399534667914E-03 -1.690693231995E-19 2.205978679646E-04 6.869140579106E-01
 1.570817475779E+02 -1.150000000000E+01 -3.150253910727E+00 2.284771896905E-01 1.440334840510E-03 1.422613079874E-03 -5.379914063769E-19 2.252471034125E-04 6.829641199040E-01
 1.561733573192E+02 -1.150000000000E+01 -3.294408851824E+00 2.221993342849E-01 1.464289689500E-03 1.446133194742E-03 -9.687755513281E-19 2.298758446019E-04 6.790145970398E-01
 1.552650515834E+02 -1.150000000000E+01 -3.439080483438E+00 2.158798375288E-01 1.488562411267E-03 1.469980767128E-03 -1.510912884826E-18 2.344663351349E-04 6.750654416671E-01
 1.543568187969E+02 -1.150000000000E+01 -3.584196289666E+00 2.095209350699E-01 1.512994212784E-03 1.493999057784E-03 -1.310702335758E-18 2.389941489791E-04 6.711166034647E-01
 1.534486496154E+02 -1.150000000000E+01 -3.729691486261E+00 2.031243165067E-01 1.537701816890E-03 1.518303352712E-03 2.821830654127E-19 2.434784078239E-04 6.671680418061E-01
 1.525405337380E+02 -1.150000000000E+01 -3.875502854482E+00 1.966925883820E-01 1.562716922076E-03 1.542925000459E-03 1.292781432337E-18 2.479245313301E-04 6.632197119044E-01
 1.516324609371E+02 -1.150000000000E+01 -4.021567771659E+00 1.902275995398E-01 1.587924334669E-03 1.567750576030E-03 2.820016073743E-19 2.523128903119E-04 6.592715692919E-01
 1.507244216087E+02 -1.150000000000E+01 -4.167828015521E+00 1.837321603979E-01 1.613348140396E-03 1.592804122970E-03 -1.164726261036E-18 2.566461234847E-04 6.553235722115E-01
 1.498164064176E+02 -1.150000000000E+01 -4.314227344014E+00 1.772078675597E-01 1.639015083629E-03 1.618112235360E-03 -1.197460402422E-18 2.609276381989E-04 6.513756800764E-01
 1.489084072917E+02 -1.150000000000E+01 -4.460709458364E+00 1.706565684601E-01 1.664818114375E-03 1.643569375915E-03 4.099906292525E-20 2.651396984122E-04 6.474278577899E-01
 1.480004139658E+02 -1.150000000000E+01 -4.607221824352E+00 1.640797553554E-01 1.690715696352E-03 1.669134631638E-03 8.015100268767E-19 2.692752254530E-04 6.434800607208E-01
 1.470924202723E+02 -1.150000000000E+01 -4.753714814389E+00 1.574778297591E-01 1.716784021866E-03 1.694883374369E-03 9.847780835713E-19 2.733454241205E-04 6.395322620536E-01
 1.461844179903E+02 -1.150000000000E+01 -4.900139300945E+00 1.508515194165E-01 1.743060646895E-03 1.720853172935E-03 9.555382484689E-20 2.773531381868E-04 6.355844260447E-01
 1.452763976554E+02 -1.150000000000E+01 -5.046446253229E+00 1.442020081738E-01 1.769556766655E-03 1.747055836383E-03 -4.572855477606E-20 2.812952692658E-04 6.316365115453E-01
 1.443683527372E+02 -1.150000000000E+01 -5.192585916743E+00 1.375321481386E-01 1.796289596204E-03 1.773509054780E-03 8.093086504198E-19 2.851699496184E-04 6.276884901617E-01
 1.434602751721E+02 -1.150000000000E+01 -5.338508748575E+00 1.308446395986E-01 1.823131026228E-03 1.800086396887E-03 1.055841970807E-19 2.889561093716E-04 6.237403268353E-01
 1.425521559659E+02 -1.150000000000E+01 -5.484166637352E+00 1.241412188335E-01 1.849908287938E-03 1.826616784093E-03 -5.060656514442E-19 2.926289479560E-04 6.197919824602E-01
 1.416439898301E+02 -1.150000000000E+01 -5.629518408157E+00 1.174219174055E-01 1.876679271372E-03 1.853156744685E-03 -4.394333994714E-19 2.962010143112E-04 6.158434340441E-01