TITLE = "023.02"


# Column       1     2     3     4       5      6      7       8       9
VARIABLES =   "X"   "Y"   "Z"   "CP"   "CF"   "CFX"   "CFY"   "CFZ"   "X/C" 

#---------------------------------------------------
#   PARTICIPANT, GRID, AND SOLVER INFORMATION
#---------------------------------------------------
DATASETAUXDATA ParticipantID   = "023.02"
DATASETAUXDATA SubmissionDate  = "26/10/2024"
DATASETAUXDATA Name            = "Baptiste ARNOULD"
DATASETAUXDATA Email           = "baptiste.arnould@polymtl.ca"
DATASETAUXDATA Institution     = "Polytechnique Montreal"
DATASETAUXDATA SolverName      = "CHAMPS"
DATASETAUXDATA BasicAlgorithm  = "RANS"
DATASETAUXDATA TurbulenceModel = "SA"
DATASETAUXDATA GridId          = "Cadence_Grids.REV01 Unstructured"
DATASETAUXDATA Discretization  = "Finite volume"
DATASETAUXDATA Order           = "2"
DATASETAUXDATA DistanceCalc    = "EIKONAL_2N_ORDER"
DATASETAUXDATA Notes           = "X/C is the last variable instead of beeing the 4th one, therefore Cp is the 4th variable, CF is the 5th etc."



ZONE T="023.02 - Mesh 4 - AOA 1.36 - WING SECTION  1"
AUXDATA GridLevel       = "4"
AUXDATA Mach            = "0.73"
AUXDATA Re              = "3000000.0"
AUXDATA Alpha           = "1.36"
AUXDATA Tstatic         = "273.0"
AUXDATA CLtotal         = "7.809171332232e-01"
AUXDATA Eta             = "0.5"
AUXDATA Dt              = "-"
AUXDATA CtuStart        = "-"
AUXDATA CtuAvg          = "-"
AUXDATA GridFileName    = "ONERA-OAT15A_230mmChord_780mmSpan_upZ_2024_09_05_Unstructured_Level-4.cgns"

 2.300000000000E+02 -1.150000000000E+01 5.749310000000E-01 7.774204984600E-02 3.803307248634E-04 2.748929531014E-04 -1.206900442520E-20 -1.299583117670E-04 1.000000000000E+00
 2.300000000000E+02 -1.150000000000E+01 5.270488333333E-01 7.536349687704E-02 5.921461586111E-04 -4.498513496694E-05 -2.914246493182E-20 5.707841897102E-04 1.000000000000E+00
 2.300000000000E+02 -1.150000000000E+01 4.791666666667E-01 9.507272306506E-02 7.009526806263E-04 -1.240400423225E-05 -2.702706833275E-20 7.008387474469E-04 1.000000000000E+00
 2.300000000000E+02 -1.150000000000E+01 4.312845000000E-01 9.314216430174E-02 2.195650493433E-04 -1.477621523225E-06 -1.886303541549E-20 2.195560341718E-04 1.000000000000E+00
 2.300000000000E+02 -1.150000000000E+01 3.834023333333E-01 9.152158319272E-02 1.714803387670E-04 1.302192341686E-06 -1.255100416288E-20 1.714733538446E-04 1.000000000000E+00
 2.300000000000E+02 -1.150000000000E+01 3.355201666667E-01 9.061698019927E-02 2.699076609560E-04 2.507631071188E-06 -5.635113578816E-21 2.698955304536E-04 1.000000000000E+00
 2.300000000000E+02 -1.150000000000E+01 2.876380000000E-01 9.060412866256E-02 4.158879513479E-04 2.495337999044E-06 -3.392576282122E-21 4.158799653604E-04 1.000000000000E+00
 2.300000000000E+02 -1.150000000000E+01 2.397558333333E-01 9.114461967557E-02 5.471143060774E-04 1.941853951240E-06 2.026657210103E-21 5.471105644628E-04 1.000000000000E+00
 2.300000000000E+02 -1.150000000000E+01 1.918736666667E-01 9.204359464798E-02 6.384834306273E-04 1.160280346228E-06 1.114254544060E-20 6.384821942308E-04 1.000000000000E+00
 2.300000000000E+02 -1.150000000000E+01 1.439915000000E-01 9.319091795369E-02 6.804503911867E-04 2.941699547362E-07 2.730572790749E-20 6.804501790080E-04 1.000000000000E+00
 2.300000000000E+02 -1.150000000000E+01 9.610933333333E-02 9.450092244476E-02 6.701628313063E-04 -5.968107354431E-07 2.079257641729E-20 6.701624068027E-04 1.000000000000E+00
 2.300000000000E+02 -1.150000000000E+01 4.822716666667E-02 9.586359398353E-02 6.084468604058E-04 -1.451267686372E-06 7.454020180800E-21 6.084449121202E-04 1.000000000000E+00
 2.300000000000E+02 -1.150000000000E+01 3.450000000000E-04 9.714443037094E-02 4.996709215375E-04 -2.205041293108E-06 7.870403314067E-21 4.996656485947E-04 1.000000000000E+00
 2.300000000000E+02 -1.150000000000E+01 -4.753716666667E-02 9.820406329028E-02 3.514175749307E-04 -2.806392661540E-06 8.616329154826E-21 3.514050963453E-04 1.000000000000E+00
 2.300000000000E+02 -1.150000000000E+01 -9.541933333333E-02 9.891595822356E-02 1.738741504899E-04 -3.214777612682E-06 1.249008534356E-20 1.738296340811E-04 1.000000000000E+00
 2.300000000000E+02 -1.150000000000E+01 -1.433015000000E-01 9.917730110500E-02 9.962872320202E-05 -3.386657230618E-06 1.249074461165E-20 -2.044079570704E-05 1.000000000000E+00
 2.300000000000E+02 -1.150000000000E+01 -1.911836666667E-01 9.892069791448E-02 2.158880788000E-04 -3.270360404304E-06 5.040541656349E-21 -2.158560233848E-04 1.000000000000E+00
 2.300000000000E+02 -1.150000000000E+01 -2.390658333333E-01 9.813460795480E-02 3.934904826137E-04 -2.808218272143E-06 9.727691322452E-22 -3.934793651059E-04 1.000000000000E+00
 2.300000000000E+02 -1.150000000000E+01 -2.869480000000E-01 9.693675738022E-02 5.343032600406E-04 -2.030288688850E-06 -3.351523150044E-22 -5.342989681778E-04 1.000000000000E+00
 2.300000000000E+02 -1.150000000000E+01 -3.348301666667E-01 9.569741514998E-02 6.322562417564E-04 -1.133844122502E-06 7.573536470991E-21 -6.322550158288E-04 1.000000000000E+00
 2.300000000000E+02 -1.150000000000E+01 -3.827123333333E-01 9.538166101961E-02 7.502232539761E-04 -6.148759370930E-07 1.821256043644E-20 -7.502229887688E-04 1.000000000000E+00
 2.300000000000E+02 -1.150000000000E+01 -4.305945000000E-01 9.617187469700E-02 1.072123379563E-03 7.099832393143E-07 2.861942349824E-20 -1.072122561815E-03 1.000000000000E+00
 2.300000000000E+02 -1.150000000000E+01 -4.784766666667E-01 9.998704043962E-02 2.989608114280E-03 -5.760386646384E-05 3.710923200186E-20 -2.988871449462E-03 1.000000000000E+00
 2.300000000000E+02 -1.150000000000E+01 -5.263588333333E-01 2.422637981331E-02 2.765349067577E-03 -3.520103322050E-04 2.551624595494E-20 -2.650111777914E-03 1.000000000000E+00
 2.300000000000E+02 -1.150000000000E+01 -5.742410000000E-01 3.765145590150E-02 1.723712130049E-03 9.697679141786E-04 4.055445344594E-21 -5.472545537282E-05 1.000000000000E+00
 2.299492586772E+02 -1.150000000000E+01 -5.684160157356E-01 1.296691867138E-01 3.058116835246E-03 3.022594446656E-03 2.664824725521E-21 9.362093497547E-05 9.997793855531E-01
 2.298959801885E+02 -1.150000000000E+01 -5.623007186506E-01 1.337694662761E-01 3.295105724865E-03 3.274921267486E-03 4.047339340731E-20 -3.611037445329E-04 9.995477399501E-01
 2.298400375517E+02 -1.150000000000E+01 -5.558817561516E-01 1.403618120000E-01 3.249226042061E-03 3.225679560638E-03 5.181133414243E-20 -3.901849181993E-04 9.993045110942E-01
 2.297812974047E+02 -1.150000000000E+01 -5.491453954244E-01 1.444640264824E-01 3.522042581164E-03 3.498713013872E-03 3.627490385867E-20 -4.046980572702E-04 9.990491191510E-01
 2.297196196810E+02 -1.150000000000E+01 -5.420775603944E-01 1.482880243498E-01 3.598349252716E-03 3.574972766004E-03 6.073203574242E-20 -4.094954566552E-04 9.987809551348E-01
 2.296548572669E+02 -1.150000000000E+01 -5.346638804507E-01 1.517881622784E-01 3.570457565443E-03 3.547387845684E-03 5.833301337913E-20 -4.052240803161E-04 9.984993794214E-01
 2.295868556413E+02 -1.150000000000E+01 -5.268897531984E-01 1.552381732541E-01 3.515157812671E-03 3.492523864776E-03 1.463709556115E-20 -3.982604679839E-04 9.982037201798E-01
 2.295154524955E+02 -1.150000000000E+01 -5.187404238889E-01 1.586858761401E-01 3.457432333643E-03 3.435248138551E-03 9.248230101116E-21 -3.910350707143E-04 9.978932717196E-01
 2.294404773322E+02 -1.150000000000E+01 -5.102010846356E-01 1.621255851048E-01 3.403043715930E-03 3.381302053366E-03 1.023024023127E-20 -3.840608631539E-04 9.975672927489E-01
 2.293617510433E+02 -1.150000000000E+01 -5.012569970446E-01 1.655359640811E-01 3.351946838682E-03 3.330641734668E-03 -2.291120089208E-20 -3.773234259879E-04 9.972250045359E-01
 2.292790844330E+02 -1.150000000000E+01 -4.918930709078E-01 1.689075447250E-01 3.303655601096E-03 3.282781416258E-03 -1.068510790679E-20 -3.707912643638E-04 9.968655844914E-01
 2.291922810868E+02 -1.150000000000E+01 -4.820926143391E-01 1.722406179316E-01 3.257641496851E-03 3.237193034332E-03 -2.078197093859E-21 -3.644296719062E-04 9.964881786382E-01
 2.291011337496E+02 -1.150000000000E+01 -4.718380161790E-01 1.755395769437E-01 3.213455865197E-03 3.193428905618E-03 -7.468043707249E-20 -3.582038128752E-04 9.960918858678E-01
 2.290054247106E+02 -1.150000000000E+01 -4.611113651560E-01 1.788088406955E-01 3.170866557933E-03 3.151258684752E-03 -6.640030841720E-20 -3.520836732797E-04 9.956757596115E-01
 2.289049253025E+02 -1.150000000000E+01 -4.498945222278E-01 1.820518258603E-01 3.129865422220E-03 3.110673940568E-03 -4.978975718338E-20 -3.460702510816E-04 9.952388056628E-01
 2.287993946899E+02 -1.150000000000E+01 -4.381690860011E-01 1.852719856771E-01 3.090688384860E-03 3.071907074979E-03 -6.798411909496E-20 -3.402072767346E-04 9.947799769125E-01
 2.286885805740E+02 -1.150000000000E+01 -4.259151957061E-01 1.884740921140E-01 3.053387793554E-03 3.035007629467E-03 -3.279160077163E-20 -3.345221265302E-04 9.942981764089E-01
 2.285722203729E+02 -1.150000000000E+01 -4.131110663735E-01 1.916641896922E-01 3.017684984893E-03 2.999696319253E-03 1.127165094419E-20 -3.290045493790E-04 9.937922624907E-01
 2.284500338865E+02 -1.150000000000E+01 -3.997334385820E-01 1.948487984380E-01 2.983354858686E-03 2.965748156645E-03 7.138550427558E-20 -3.236408605571E-04 9.932610168978E-01
 2.283217294130E+02 -1.150000000000E+01 -3.857583383902E-01 1.980343696329E-01 2.950271402702E-03 2.933037708726E-03 2.676709773691E-20 -3.184186896614E-04 9.927031713607E-01
 2.281870030999E+02 -1.150000000000E+01 -3.711609971663E-01 2.012269062094E-01 2.918177334172E-03 2.901309711045E-03 -1.974875100158E-20 -3.133052978037E-04 9.921174047822E-01
 2.280455298489E+02 -1.150000000000E+01 -3.559151116174E-01 2.044314114904E-01 2.886783601921E-03 2.870277687237E-03 -2.226908117453E-20 -3.082609846462E-04 9.915023036907E-01
 2.278969755747E+02 -1.150000000000E+01 -3.399953542166E-01 2.076517556114E-01 2.856013870789E-03 2.839866622575E-03 -5.318769409946E-20 -3.032689160352E-04 9.908564155421E-01
 2.277409822306E+02 -1.150000000000E+01 -3.233752380050E-01 2.108912837698E-01 2.825891610586E-03 2.810100450482E-03 -5.922261663729E-20 -2.983254221604E-04 9.901781836114E-01
 2.275771781888E+02 -1.150000000000E+01 -3.060279610635E-01 2.141533922780E-01 2.796376937072E-03 2.780939422179E-03 -5.227518270335E-20 -2.934264390438E-04 9.894659921251E-01
 2.274051714939E+02 -1.150000000000E+01 -2.879257584904E-01 2.174415244045E-01 2.767306244049E-03 2.752221104933E-03 -4.359358242226E-20 -2.885514968681E-04 9.887181369300E-01
 2.272245528630E+02 -1.150000000000E+01 -2.690403909901E-01 2.207585152764E-01 2.738423102905E-03 2.723691297344E-03 -3.569797379084E-20 -2.836650898580E-04 9.879328385346E-01
 2.270348888249E+02 -1.150000000000E+01 -2.493438220570E-01 2.241060003097E-01 2.709613559758E-03 2.695237569409E-03 -2.838449924633E-20 -2.787455799017E-04 9.871082122823E-01
 2.268357264301E+02 -1.150000000000E+01 -2.288088835694E-01 2.274845740055E-01 2.680897070717E-03 2.666880028868E-03 -7.796259178401E-20 -2.737863229921E-04 9.862422888266E-01
 2.266265893655E+02 -1.150000000000E+01 -2.074083254763E-01 2.308942753240E-01 2.652249963925E-03 2.638595358373E-03 -5.874231420397E-20 -2.687810653384E-04 9.853329972413E-01
 2.264069766498E+02 -1.150000000000E+01 -1.851149103082E-01 2.343350897459E-01 2.623718612689E-03 2.610429179639E-03 -3.597513665249E-20 -2.637378174023E-04 9.843781593471E-01
 2.261763651104E+02 -1.150000000000E+01 -1.619017845637E-01 2.378077442711E-01 2.595454072694E-03 2.582530839587E-03 -8.388542771992E-20 -2.586793687844E-04 9.833755004802E-01
 2.259342009346E+02 -1.150000000000E+01 -1.377403641301E-01 2.413143181222E-01 2.567490296706E-03 2.554933085422E-03 -1.377895076628E-19 -2.536178260737E-04 9.823226127590E-01
 2.256799056632E+02 -1.150000000000E+01 -1.126013231074E-01 2.448581125905E-01 2.539777289157E-03 2.527585197430E-03 -1.538165507089E-19 -2.485565183306E-04 9.812169811444E-01
 2.254128710623E+02 -1.150000000000E+01 -8.645502731078E-02 2.484431908911E-01 2.512251209575E-03 2.500423314117E-03 -7.377441392328E-20 -2.434911191871E-04 9.800559611403E-01
 2.251324577981E+02 -1.150000000000E+01 -5.927158758738E-02 2.520733131904E-01 2.484619705808E-03 2.473157286242E-03 7.479504872220E-20 -2.383832447183E-04 9.788367730351E-01
 2.248379967904E+02 -1.150000000000E+01 -3.102280084425E-02 2.557503897052E-01 2.456601834258E-03 2.445508668365E-03 1.635043743956E-19 -2.331914952113E-04 9.775565077841E-01
 2.245287812394E+02 -1.150000000000E+01 -1.684948688119E-03 2.594741838792E-01 2.428276415005E-03 2.417557003664E-03 2.526024829157E-19 -2.279094102033E-04 9.762120923453E-01
 2.242040712466E+02 -1.150000000000E+01 2.876287627424E-02 2.632433676356E-01 2.399761552896E-03 2.389420410117E-03 3.220513655136E-19 -2.225391903429E-04 9.748003097677E-01
 2.238630890416E+02 -1.150000000000E+01 6.033920444870E-02 2.670565704075E-01 2.371083547081E-03 2.361124649950E-03 1.997738487348E-19 -2.170841016155E-04 9.733177784420E-01
 2.235050177846E+02 -1.150000000000E+01 9.305993272470E-02 2.709130038017E-01 2.342277787695E-03 2.332704355411E-03 1.389504307080E-21 -2.115500130730E-04 9.717609468895E-01
 2.231289995976E+02 -1.150000000000E+01 1.269388503849E-01 2.748125811440E-01 2.313314387913E-03 2.304129134256E-03 -2.793059571431E-19 -2.059369334477E-04 9.701260852068E-01
 2.227341335344E+02 -1.150000000000E+01 1.619864973153E-01 2.787556400533E-01 2.284141358016E-03 2.275346648353E-03 -2.690838164823E-19 -2.002419602686E-04 9.684092762367E-01
 2.223194733459E+02 -1.150000000000E+01 1.982093391698E-01 2.827425880297E-01 2.254716837691E-03 2.246314856669E-03 1.133654348239E-20 -1.944604807491E-04 9.666064058518E-01
 2.218840251869E+02 -1.150000000000E+01 2.356087834741E-01 2.867737279762E-01 2.225026111816E-03 2.217018763239E-03 8.356623981074E-20 -1.885897975195E-04 9.647131529865E-01
 2.214267451846E+02 -1.150000000000E+01 2.741798813801E-01 2.908494132370E-01 2.195107795803E-03 2.187496432006E-03 3.580280797774E-20 -1.826321613499E-04 9.627249790635E-01
 2.209465369795E+02 -1.150000000000E+01 3.139109782454E-01 2.949700272864E-01 2.164887407487E-03 2.157673403069E-03 -1.144430450735E-19 -1.765776345954E-04 9.606371173024E-01
 2.204422490782E+02 -1.150000000000E+01 3.547825000669E-01 2.991353420713E-01 2.134185665772E-03 2.127370877360E-03 -2.008644732745E-19 -1.704055330444E-04 9.584445612097E-01
 2.199126718374E+02 -1.150000000000E+01 3.967625631839E-01 3.033439612318E-01 2.102992804509E-03 2.096578917198E-03 -2.741841856075E-19 -1.641089265316E-04 9.561420514669E-01
 2.193565346269E+02 -1.150000000000E+01 4.398061122921E-01 3.075937378727E-01 2.071370254816E-03 2.065358428089E-03 -4.012863108073E-19 -1.576868605831E-04 9.537240635950E-01
 2.187725029151E+02 -1.150000000000E+01 4.838547183446E-01 3.118812279829E-01 2.039272306178E-03 2.033663220931E-03 -4.582265536957E-19 -1.511322431683E-04 9.511847952832E-01
 2.181591749906E+02 -1.150000000000E+01 5.288333479947E-01 3.162029284065E-01 2.006701030906E-03 2.001494542899E-03 -5.201811517801E-19 -1.444429517520E-04 9.485181521329E-01
 2.175150786107E+02 -1.150000000000E+01 5.746477821658E-01 3.205557979380E-01 1.973650858506E-03 1.968846053246E-03 -2.903249573638E-19 -1.376141776223E-04 9.457177330899E-01
 2.168386675737E+02 -1.150000000000E+01 6.211827487150E-01 3.249355618386E-01 1.940018281747E-03 1.935613685119E-03 -1.485472065410E-19 -1.306325709442E-04 9.427768155377E-01
 2.161283178255E+02 -1.150000000000E+01 6.682951786309E-01 3.293372600741E-01 1.905822335656E-03 1.901815421262E-03 -2.760737547129E-19 -1.234934764512E-04 9.396883383717E-01
 2.153823236516E+02 -1.150000000000E+01 7.158101707363E-01 3.337574734598E-01 1.870923644731E-03 1.867311107023E-03 -2.046641710602E-19 -1.161795464200E-04 9.364448854416E-01
 2.145988938279E+02 -1.150000000000E+01 7.635181711991E-01 3.381878296797E-01 1.834549469442E-03 1.831328008984E-03 6.514531564365E-20 -1.086370091146E-04 9.330386688169E-01
 2.137761471639E+02 -1.150000000000E+01 8.111640737295E-01 3.426116383511E-01 1.795062454368E-03 1.792229980842E-03 2.581011175346E-19 -1.007602682678E-04 9.294615094084E-01
 2.129121084218E+02 -1.150000000000E+01 8.584435403695E-01 3.470317940298E-01 1.752912162784E-03 1.750459885224E-03 -1.330529150585E-20 -9.264185395923E-05 9.257048192251E-01
 2.120047038671E+02 -1.150000000000E+01 9.049944005994E-01 3.514163749601E-01 1.713400694527E-03 1.711305633734E-03 -1.775307460611E-19 -8.465137296939E-05 9.217595820309E-01
 2.110857481681E+02 -1.150000000000E+01 9.488284320639E-01 3.556547779051E-01 1.678833481049E-03 1.677069029538E-03 -1.295384105719E-19 -7.688754274260E-05 9.177641224700E-01
 2.101666443671E+02 -1.150000000000E+01 9.892635278663E-01 3.596285241038E-01 1.645210831861E-03 1.643752218709E-03 -2.003248046067E-19 -6.919230806218E-05 9.137680189872E-01
 2.092473984679E+02 -1.150000000000E+01 1.026215963023E+00 3.633432826005E-01 1.610318516842E-03 1.609138767671E-03 -1.397450990595E-19 -6.154982613570E-05 9.097712976865E-01
 2.083280215601E+02 -1.150000000000E+01 1.059599664611E+00 3.668064477157E-01 1.575149355698E-03 1.574219702055E-03 7.404354860671E-22 -5.401849527900E-05 9.057740067829E-01
 2.074085245615E+02 -1.150000000000E+01 1.089324995403E+00 3.700197522705E-01 1.540705928194E-03 1.539996841699E-03 9.348711645409E-20 -4.663273559166E-05 9.017761937456E-01
 2.064889193432E+02 -1.150000000000E+01 1.115298406633E+00 3.729986711628E-01 1.507247117995E-03 1.506728773955E-03 3.022398217237E-20 -3.940000922938E-05 8.977779101879E-01
 2.055692189331E+02 -1.150000000000E+01 1.137427067327E+00 3.757295479572E-01 1.474800662864E-03 1.474443105032E-03 8.473675530437E-20 -3.232007725955E-05 8.937792127527E-01
 2.046494376174E+02 -1.150000000000E+01 1.155623147995E+00 3.782251707446E-01 1.443272519876E-03 1.443045660727E-03 1.397933209088E-19 -2.539399150658E-05 8.897801635540E-01
 2.037295908322E+02 -1.150000000000E+01 1.169800494986E+00 3.804731710667E-01 1.412669613386E-03 1.412543323645E-03 3.774620939265E-20 -1.862518798207E-05 8.857808297053E-01
 2.028096951851E+02 -1.150000000000E+01 1.179877453266E+00 3.824752794010E-01 1.383173774997E-03 1.383117999868E-03 -1.151632876142E-21 -1.201860114854E-05 8.817812834135E-01
 2.018897684312E+02 -1.150000000000E+01 1.185781098593E+00 3.842342436780E-01 1.354707128057E-03 1.354692058320E-03 2.961313285908E-21 -5.573832469450E-06 8.777816018748E-01
 2.009698293193E+02 -1.150000000000E+01 1.187439699025E+00 3.857514043019E-01 1.327266954326E-03 1.327263120522E-03 4.976822389871E-20 7.106300389307E-07 8.737818666055E-01
 2.000498975757E+02 -1.150000000000E+01 1.184785827315E+00 3.870370238801E-01 1.300658930275E-03 1.300637279794E-03 6.489779460454E-20 6.837365989706E-06 8.697821633727E-01
 1.991299938462E+02 -1.150000000000E+01 1.177756199961E+00 3.880735992798E-01 1.275012281452E-03 1.274944278467E-03 -1.199789977867E-20 1.280551839805E-05 8.657825819401E-01
 1.982101396465E+02 -1.150000000000E+01 1.166290077072E+00 3.888691927844E-01 1.250795812383E-03 1.250653630406E-03 -4.459206140787E-20 1.861265388495E-05 8.617832158542E-01
 1.972903569423E+02 -1.150000000000E+01 1.150351122068E+00 3.894170001504E-01 1.227867733572E-03 1.227624469474E-03 2.369713412262E-20 2.425538563806E-05 8.577841606186E-01
 1.963706679276E+02 -1.150000000000E+01 1.129917356981E+00 3.897190655146E-01 1.205998851348E-03 1.205628753460E-03 1.377585128258E-19 2.972861622779E-05 8.537855127289E-01
 1.954510950823E+02 -1.150000000000E+01 1.104968343229E+00 3.897723911392E-01 1.185318346215E-03 1.184796643320E-03 3.331549015317E-19 3.504258710920E-05 8.497873699231E-01
 1.945316608918E+02 -1.150000000000E+01 1.075493054499E+00 3.895808465643E-01 1.165916254265E-03 1.165219078510E-03 8.532952587494E-20 4.021132503350E-05 8.457898299644E-01
 1.936123878702E+02 -1.150000000000E+01 1.041484475999E+00 3.891571496722E-01 1.147818515942E-03 1.146923050292E-03 -1.674183704026E-19 4.524228672495E-05 8.417929907401E-01
 1.926932984764E+02 -1.150000000000E+01 1.002939538183E+00 3.884936611543E-01 1.131174079542E-03 1.130058497242E-03 -8.883702495289E-20 5.014849721636E-05 8.377969498974E-01
 1.917744141372E+02 -1.150000000000E+01 9.598783674195E-01 3.875891320876E-01 1.115927876700E-03 1.114571515085E-03 -1.110071608972E-19 5.493568018820E-05 8.338018005967E-01
 1.908557555673E+02 -1.150000000000E+01 9.123295684063E-01 3.864582171597E-01 1.102125091664E-03 1.100508552768E-03 -8.328682776963E-20 5.961147126490E-05 8.298076329012E-01
 1.899373428401E+02 -1.150000000000E+01 8.603258342467E-01 3.851139147571E-01 1.089879909042E-03 1.087984874553E-03 -6.650096895974E-20 6.418972395302E-05 8.258145340874E-01
 1.890191940562E+02 -1.150000000000E+01 8.039244251861E-01 3.835488482373E-01 1.078980651966E-03 1.076790324388E-03 -2.720947570509E-20 6.866851013575E-05 8.218225828531E-01
 1.881013259165E+02 -1.150000000000E+01 7.431916950264E-01 3.817739909182E-01 1.069236695250E-03 1.066735890277E-03 1.740088915121E-19 7.304441289276E-05 8.178318518108E-01
 1.871837541362E+02 -1.150000000000E+01 6.781948487668E-01 3.797862663321E-01 1.060687042376E-03 1.057861266091E-03 -7.428395249131E-20 7.733483718954E-05 8.138424092878E-01
 1.862664930262E+02 -1.150000000000E+01 6.090074690108E-01 3.775880660867E-01 1.053364185607E-03 1.050199440006E-03 -3.952844650114E-19 8.155769604716E-05 8.098543175051E-01
 1.853495556849E+02 -1.150000000000E+01 5.357058954162E-01 3.751856098338E-01 1.047356471262E-03 1.043839330117E-03 3.690426112569E-19 8.573059913675E-05 8.058676334127E-01
 1.844329540120E+02 -1.150000000000E+01 4.583686249946E-01 3.725745890466E-01 1.043016774869E-03 1.039133592590E-03 7.852697824014E-19 8.989083305792E-05 8.018824087479E-01
 1.835166968744E+02 -1.150000000000E+01 3.770967179090E-01 3.697636903507E-01 1.040362082824E-03 1.036100112153E-03 -2.841381684721E-19 9.404845822617E-05 7.978986820628E-01
 1.826007906371E+02 -1.150000000000E+01 2.920043575494E-01 3.667703067885E-01 1.038937410830E-03 1.034286664007E-03 -2.552324085562E-19 9.817138959578E-05 7.939164810308E-01
 1.816852402311E+02 -1.150000000000E+01 2.032058576984E-01 3.635857030716E-01 1.038612444251E-03 1.033563942057E-03 5.081166003555E-19 1.022606428488E-04 7.899358270919E-01
 1.807700490536E+02 -1.150000000000E+01 1.108170196007E-01 3.602114192875E-01 1.039617395953E-03 1.034161274725E-03 5.390263715550E-19 1.063526847892E-04 7.859567350157E-01
 1.798552190092E+02 -1.150000000000E+01 1.495492364019E-02 3.566634905592E-01 1.041972379480E-03 1.036098847590E-03 8.430021492688E-19 1.104625065441E-04 7.819792130834E-01
 1.789407506685E+02 -1.150000000000E+01 -8.426333794657E-02 3.529409180361E-01 1.045740719940E-03 1.039439831685E-03 1.466976525741E-19 1.146083364946E-04 7.780032637761E-01
 1.780266428399E+02 -1.150000000000E+01 -1.867164637461E-01 3.490649668293E-01 1.050793678835E-03 1.044056669552E-03 -3.183305785293E-19 1.187848219484E-04 7.740288819124E-01
 1.771128923596E+02 -1.150000000000E+01 -2.922772262723E-01 3.450238660389E-01 1.056905967469E-03 1.049725970046E-03 6.325473453612E-19 1.229741451121E-04 7.700560537373E-01
 1.761994947239E+02 -1.150000000000E+01 -4.008180859291E-01 3.408231571731E-01 1.064231098710E-03 1.056600673735E-03 8.072661118270E-19 1.272009689485E-04 7.660847596690E-01
 1.752864441219E+02 -1.150000000000E+01 -5.122110610539E-01 3.364817411284E-01 1.072635766256E-03 1.064548823938E-03 3.757203458759E-19 1.314561897050E-04 7.621149744430E-01
 1.743737333681E+02 -1.150000000000E+01 -6.263268223780E-01 3.319783202711E-01 1.082133171396E-03 1.073583868501E-03 -4.981384040369E-19 1.357479766221E-04 7.581466668176E-01
 1.734613533035E+02 -1.150000000000E+01 -7.430360457059E-01 3.273349677143E-01 1.092890193681E-03 1.083871802552E-03 -1.370432801660E-18 1.401025060611E-04 7.541797969718E-01
 1.725492968471E+02 -1.150000000000E+01 -8.622091046841E-01 3.225586848338E-01 1.104768764502E-03 1.095276054769E-03 -1.256567659211E-18 1.445073939870E-04 7.502143341177E-01
 1.716375510923E+02 -1.150000000000E+01 -9.837169610885E-01 3.176545380403E-01 1.117675662922E-03 1.107704718945E-03 -4.432431456705E-19 1.489540714104E-04 7.462502221403E-01
 1.707261053114E+02 -1.150000000000E+01 -1.107430235652E+00 3.126209658906E-01 1.131567457991E-03 1.121115117588E-03 -4.417231009563E-19 1.534409941923E-04 7.422874143973E-01
 1.698149471420E+02 -1.150000000000E+01 -1.233220428803E+00 3.074692854276E-01 1.146379982851E-03 1.135443723477E-03 -1.348823252671E-18 1.579654962584E-04 7.383258571390E-01
 1.689040644860E+02 -1.150000000000E+01 -1.360967269175E+00 3.022140349672E-01 1.161957896022E-03 1.150536650716E-03 -1.205237048884E-18 1.625121133517E-04 7.343654977651E-01
 1.679934452510E+02 -1.150000000000E+01 -1.490556071918E+00 2.968426595205E-01 1.178403561488E-03 1.166495497178E-03 -9.220551609070E-19 1.670986506529E-04 7.304062836999E-01
 1.670830766733E+02 -1.150000000000E+01 -1.621872390992E+00 2.913738910720E-01 1.195730869285E-03 1.183334351051E-03 -9.541441152696E-19 1.717294303984E-04 7.264481594493E-01
 1.661729456278E+02 -1.150000000000E+01 -1.754803837244E+00 2.858057053367E-01 1.213800189986E-03 1.200915725490E-03 7.907064153236E-19 1.763839977695E-04 7.224910679468E-01
 1.652630388066E+02 -1.150000000000E+01 -1.889240908322E+00 2.801424017591E-01 1.232697490653E-03 1.219325292282E-03 2.184882000560E-18 1.810746762390E-04 7.185349513329E-01
 1.643533420815E+02 -1.150000000000E+01 -2.025074440917E+00 2.743938085156E-01 1.252299416287E-03 1.238441409398E-03 9.152638999737E-19 1.857845870516E-04 7.145797481806E-01
 1.634438424327E+02 -1.150000000000E+01 -2.162197613456E+00 2.685619148028E-01 1.272490339216E-03 1.258150074448E-03 -3.493362980136E-19 1.904976593786E-04 7.106254018815E-01
 1.625345257594E+02 -1.150000000000E+01 -2.300512033178E+00 2.626594872639E-01 1.293296532259E-03 1.278477530092E-03 3.220661813441E-19 1.952191587806E-04 7.066718511279E-01
 1.616253790657E+02 -1.150000000000E+01 -2.439920840548E+00 2.566790585761E-01 1.314710985740E-03 1.299417146122E-03 5.528566792560E-19 1.999488235234E-04 7.027190394161E-01
 1.607163888560E+02 -1.150000000000E+01 -2.580328295700E+00 2.506362251275E-01 1.336604062298E-03 1.320840841894E-03 -8.742816944281E-19 2.046690961412E-04 6.987669080697E-01
 1.598075426779E+02 -1.150000000000E+01 -2.721647439725E+00 2.445351246706E-01 1.358872189914E-03 1.342646407006E-03 -1.363700224125E-18 2.093653987066E-04 6.948154029476E-01
 1.588988285095E+02 -1.150000000000E+01 -2.863795787194E+00 2.383723226901E-01 1.381624180154E-03 1.364941611944E-03 -5.278517394325E-19 2.140547777310E-04 6.908644717804E-01
 1.579902333194E+02 -1.150000000000E+01 -3.006691146883E+00 2.321560814369E-01 1.404813426617E-03 1.387680798755E-03 -1.819134138140E-19 2.187292770721E-04 6.869140579106E-01
 1.570817475779E+02 -1.150000000000E+01 -3.150253910727E+00 2.258886636090E-01 1.428359943873E-03 1.410785545527E-03 -5.230621270625E-19 2.233742538612E-04 6.829641199040E-01
 1.561733573192E+02 -1.150000000000E+01 -3.294408851824E+00 2.195713165593E-01 1.452345363257E-03 1.434336999044E-03 -9.243736523530E-19 2.280005619787E-04 6.790145970398E-01
 1.552650515834E+02 -1.150000000000E+01 -3.439080483438E+00 2.132111967479E-01 1.476654460647E-03 1.458221489133E-03 -1.488322362833E-18 2.325905258440E-04 6.750654416671E-01
 1.543568187969E+02 -1.150000000000E+01 -3.584196289666E+00 2.068103301799E-01 1.501126539105E-03 1.482280405930E-03 -1.295802704748E-18 2.371193500254E-04 6.711166034647E-01
 1.534486496154E+02 -1.150000000000E+01 -3.729691486261E+00 2.003703731586E-01 1.525879270750E-03 1.506629978942E-03 3.015891933753E-19 2.416062598883E-04 6.671680418061E-01
 1.525405337380E+02 -1.150000000000E+01 -3.875502854482E+00 1.938940379310E-01 1.550944013197E-03 1.531301224469E-03 1.289970533276E-18 2.460565879438E-04 6.632197119044E-01
 1.516324609371E+02 -1.150000000000E+01 -4.021567771659E+00 1.873830810123E-01 1.576206664547E-03 1.556181802662E-03 2.794057819472E-19 2.504508284746E-04 6.592715692919E-01
 1.507244216087E+02 -1.150000000000E+01 -4.167828015521E+00 1.808405199893E-01 1.601690361593E-03 1.581294821223E-03 -1.145051928956E-18 2.547914593147E-04 6.553235722115E-01
 1.498164064176E+02 -1.150000000000E+01 -4.314227344014E+00 1.742678576245E-01 1.627419993434E-03 1.606665051322E-03 -1.190248429635E-18 2.590815358282E-04 6.513756800764E-01
 1.489084072917E+02 -1.150000000000E+01 -4.460709458364E+00 1.676670279043E-01 1.653288457207E-03 1.632186906570E-03 6.157415900346E-20 2.633032926739E-04 6.474278577899E-01
 1.480004139658E+02 -1.150000000000E+01 -4.607221824352E+00 1.610393962134E-01 1.679253492756E-03 1.657818766811E-03 8.275830370598E-19 2.674494887424E-04 6.434800607208E-01
 1.470924202723E+02 -1.150000000000E+01 -4.753714814389E+00 1.543852531582E-01 1.705393166364E-03 1.683637860901E-03 1.000764758820E-18 2.715315840616E-04 6.395322620536E-01
 1.461844179903E+02 -1.150000000000E+01 -4.900139300945E+00 1.477054849528E-01 1.731745189776E-03 1.709681911389E-03 1.127282124465E-19 2.755524480919E-04 6.355844260447E-01
 1.452763976554E+02 -1.150000000000E+01 -5.046446253229E+00 1.410011666885E-01 1.758319922838E-03 1.735961907210E-03 -2.057240986492E-20 2.795088221125E-04 6.316365115453E-01
 1.443683527372E+02 -1.150000000000E+01 -5.192585916743E+00 1.342752057022E-01 1.785134644647E-03 1.762495602064E-03 8.410239110592E-19 2.833988477642E-04 6.276884901617E-01
 1.434602751721E+02 -1.150000000000E+01 -5.338508748575E+00 1.275302616382E-01 1.812061340822E-03 1.789156665862E-03 1.105749534096E-19 2.872014264441E-04 6.237403268353E-01
 1.425521559659E+02 -1.150000000000E+01 -5.484166637352E+00 1.207680729638E-01 1.838928039021E-03 1.815774815367E-03 -4.917738523397E-19 2.908918304987E-04 6.197919824602E-01
 1.416439898301E+02 -1.150000000000E+01 -5.629518408157E+00 1.139886535686E-01 1.865792212316E-03 1.842406177436E-03 -4.182778206787E-19 2.944824816509E-04 6.158434340441E-01