TITLE = "023.02"


# Column       1     2     3     4       5      6      7       8       9
VARIABLES =   "X"   "Y"   "Z"   "CP"   "CF"   "CFX"   "CFY"   "CFZ"   "X/C" 

#---------------------------------------------------
#   PARTICIPANT, GRID, AND SOLVER INFORMATION
#---------------------------------------------------
DATASETAUXDATA ParticipantID   = "023.02"
DATASETAUXDATA SubmissionDate  = "26/10/2024"
DATASETAUXDATA Name            = "Baptiste ARNOULD"
DATASETAUXDATA Email           = "baptiste.arnould@polymtl.ca"
DATASETAUXDATA Institution     = "Polytechnique Montreal"
DATASETAUXDATA SolverName      = "CHAMPS"
DATASETAUXDATA BasicAlgorithm  = "RANS"
DATASETAUXDATA TurbulenceModel = "SA"
DATASETAUXDATA GridId          = "Cadence_Grids.REV01 Unstructured"
DATASETAUXDATA Discretization  = "Finite volume"
DATASETAUXDATA Order           = "2"
DATASETAUXDATA DistanceCalc    = "EIKONAL_2N_ORDER"
DATASETAUXDATA Notes           = "X/C is the last variable instead of beeing the 4th one, therefore Cp is the 4th variable, CF is the 5th etc."



ZONE T="023.02 - Mesh 3 - AOA 3.25 - WING SECTION  1"
AUXDATA GridLevel       = "3"
AUXDATA Mach            = "0.73"
AUXDATA Re              = "3000000.0"
AUXDATA Alpha           = "3.25"
AUXDATA Tstatic         = "273.0"
AUXDATA CLtotal         = "9.839135177772e-01"
AUXDATA Eta             = "0.5"
AUXDATA Dt              = "-"
AUXDATA CtuStart        = "-"
AUXDATA CtuAvg          = "-"
AUXDATA GridFileName    = "ONERA-OAT15A_230mmChord_780mmSpan_upZ_2024_09_05_Unstructured_Level-3.cgns"

 2.300000000000E+02 -1.150000000000E+01 5.749310000000E-01 -3.472890155211E-02 1.064451272910E-04 4.734245691516E-05 2.641640134325E-20 -7.607699892956E-05 1.000000000000E+00
 2.300000000000E+02 -1.150000000000E+01 5.144482631579E-01 -3.933536056482E-02 1.223012893610E-04 1.553481544176E-05 8.224540480712E-22 -1.208979519884E-04 1.000000000000E+00
 2.300000000000E+02 -1.150000000000E+01 4.539655263158E-01 -3.874021631951E-02 9.014058835444E-05 2.330024221496E-07 -1.549030140122E-20 -9.010426473691E-05 1.000000000000E+00
 2.300000000000E+02 -1.150000000000E+01 3.934827894737E-01 -3.888111384129E-02 1.032991249125E-04 -1.619123465193E-06 -1.521112591070E-20 -1.032808746229E-04 1.000000000000E+00
 2.300000000000E+02 -1.150000000000E+01 3.330000526316E-01 -3.898569860441E-02 1.465973030079E-04 -8.017386437110E-07 2.555593166545E-22 -1.465949284073E-04 1.000000000000E+00
 2.300000000000E+02 -1.150000000000E+01 2.725173157895E-01 -3.915002188281E-02 1.884617205148E-04 -6.781691559055E-07 2.672091705544E-20 -1.884604805330E-04 1.000000000000E+00
 2.300000000000E+02 -1.150000000000E+01 2.120345789474E-01 -3.936053326032E-02 2.282229793979E-04 -6.482644719276E-07 4.616668565779E-20 -2.282220471475E-04 1.000000000000E+00
 2.300000000000E+02 -1.150000000000E+01 1.515518421053E-01 -3.962150266428E-02 2.659130924655E-04 -6.082780972785E-07 3.748585257859E-20 -2.659123888615E-04 1.000000000000E+00
 2.300000000000E+02 -1.150000000000E+01 9.106910526316E-02 -3.993614061187E-02 3.007227395643E-04 -5.513823878174E-07 1.574166487410E-20 -3.007222271589E-04 1.000000000000E+00
 2.300000000000E+02 -1.150000000000E+01 3.058636842105E-02 -4.032095420483E-02 3.308486722820E-04 -4.531537802593E-07 -2.714125686542E-21 -3.308483515763E-04 1.000000000000E+00
 2.300000000000E+02 -1.150000000000E+01 -2.989636842105E-02 -4.081470983744E-02 3.517237130886E-04 -2.535477221635E-07 -2.299754235279E-20 -3.517235935512E-04 1.000000000000E+00
 2.300000000000E+02 -1.150000000000E+01 -9.037910526316E-02 -4.147070434359E-02 3.539129786451E-04 1.428772190480E-07 -3.433720185984E-20 -3.539128520075E-04 1.000000000000E+00
 2.300000000000E+02 -1.150000000000E+01 -1.508618421053E-01 -4.228761725585E-02 3.239106893639E-04 7.848125153334E-07 -1.271595886475E-20 -3.239094363124E-04 1.000000000000E+00
 2.300000000000E+02 -1.150000000000E+01 -2.113445789474E-01 -4.300987302905E-02 2.584352971546E-04 1.346672470254E-06 2.148737704851E-20 -2.584314828953E-04 1.000000000000E+00
 2.300000000000E+02 -1.150000000000E+01 -2.718273157895E-01 -4.293017258659E-02 2.018929888799E-04 7.970642299348E-07 1.635908443163E-20 -2.018903048016E-04 1.000000000000E+00
 2.300000000000E+02 -1.150000000000E+01 -3.323100526316E-01 -4.083212448466E-02 3.210853139543E-04 -2.268442769601E-06 -1.402850068713E-20 -3.210736953301E-04 1.000000000000E+00
 2.300000000000E+02 -1.150000000000E+01 -3.927927894737E-01 -3.770077571951E-02 9.020700884250E-04 -7.143915231662E-06 -5.572044097823E-20 -9.020410805267E-04 1.000000000000E+00
 2.300000000000E+02 -1.150000000000E+01 -4.532755263158E-01 -3.322802554001E-02 3.392087765560E-03 -6.624479343095E-05 -8.904607132496E-20 -3.391376739262E-03 1.000000000000E+00
 2.300000000000E+02 -1.150000000000E+01 -5.137582631579E-01 -1.354178355053E-01 3.158570200033E-03 -3.865061264319E-04 -5.492823422624E-20 -3.014581741150E-03 1.000000000000E+00
 2.300000000000E+02 -1.150000000000E+01 -5.742410000000E-01 -1.171944988987E-01 1.946878695768E-03 1.153202144915E-03 1.704114435508E-21 -7.373441355978E-06 1.000000000000E+00
 2.299365733358E+02 -1.150000000000E+01 -5.669598699572E-01 5.119230483321E-03 3.617815295450E-03 3.579763432072E-03 8.400079128943E-21 8.534861183984E-05 9.997242318950E-01
 2.298699751436E+02 -1.150000000000E+01 -5.593165123040E-01 1.055628221507E-02 3.983843206026E-03 3.959216612106E-03 -9.336285317156E-21 -4.386477769463E-04 9.994346745373E-01
 2.298000466048E+02 -1.150000000000E+01 -5.512950872375E-01 2.073046873985E-02 4.019949539102E-03 3.990794857363E-03 -1.107453555763E-20 -4.829066252727E-04 9.991306374121E-01
 2.297266209002E+02 -1.150000000000E+01 -5.428795243097E-01 2.775799887510E-02 4.385667607765E-03 4.356680046749E-03 -3.369994820623E-20 -5.033883401150E-04 9.988113952184E-01
 2.296495227983E+02 -1.150000000000E+01 -5.340536202150E-01 3.421704928513E-02 4.457740701257E-03 4.428898282327E-03 -8.421342502352E-20 -5.062717666324E-04 9.984761860797E-01
 2.295685682207E+02 -1.150000000000E+01 -5.248011608334E-01 4.009891820252E-02 4.395977389681E-03 4.367716202815E-03 -6.605996755517E-20 -4.976665942933E-04 9.981242096551E-01
 2.294835637837E+02 -1.150000000000E+01 -5.151060720149E-01 4.584874835788E-02 4.309133277900E-03 4.281561952232E-03 -2.661434863822E-20 -4.866790610227E-04 9.977546251464E-01
 2.293943063143E+02 -1.150000000000E+01 -5.049526043521E-01 5.153857230390E-02 4.225897428518E-03 4.199002718965E-03 -4.631516813757E-21 -4.760091939942E-04 9.973665491926E-01
 2.293005815674E+02 -1.150000000000E+01 -4.943252916365E-01 5.716067708779E-02 4.150293568658E-03 4.124047762671E-03 3.247868094418E-20 -4.660108467718E-04 9.969590502929E-01
 2.292021657900E+02 -1.150000000000E+01 -4.832069536584E-01 6.269709342901E-02 4.080355490795E-03 4.054739730389E-03 5.018867544463E-20 -4.564930095143E-04 9.965311556087E-01
 2.290988243233E+02 -1.150000000000E+01 -4.715786846397E-01 6.814817007254E-02 4.014138900310E-03 3.989141875579E-03 1.534480299323E-20 -4.472776621436E-04 9.960818448840E-01
 2.289903102067E+02 -1.150000000000E+01 -4.594213309833E-01 7.352250364654E-02 3.950739454565E-03 3.926354050978E-03 1.026650920256E-20 -4.382751080529E-04 9.956100443770E-01
 2.288763640348E+02 -1.150000000000E+01 -4.467156883999E-01 7.882971855129E-02 3.890163508967E-03 3.866380822225E-03 -1.401018562546E-21 -4.295000887162E-04 9.951146262383E-01
 2.287567121179E+02 -1.150000000000E+01 -4.334421854881E-01 8.407970641315E-02 3.832728810303E-03 3.809534367315E-03 -7.279056154303E-20 -4.210187912338E-04 9.945944005126E-01
 2.286310693685E+02 -1.150000000000E+01 -4.195787692646E-01 8.928393473830E-02 3.778247004330E-03 3.755623685289E-03 -6.052730674830E-20 -4.128436904192E-04 9.940481276890E-01
 2.284991374061E+02 -1.150000000000E+01 -4.051013553677E-01 9.445494165674E-02 3.726195559222E-03 3.704126083663E-03 -7.545689995727E-20 -4.049469668156E-04 9.934745104611E-01
 2.283605974713E+02 -1.150000000000E+01 -3.899842119435E-01 9.960511515638E-02 3.676244405192E-03 3.654712294273E-03 -9.933772783059E-20 -3.973030483183E-04 9.928721629186E-01
 2.282151225398E+02 -1.150000000000E+01 -3.742012832012E-01 1.047457631949E-01 3.628017412729E-03 3.607009076183E-03 -3.970221656367E-20 -3.898648379611E-04 9.922396632165E-01
 2.280623620704E+02 -1.150000000000E+01 -3.577246691144E-01 1.098861494359E-01 3.581037399727E-03 3.560543321188E-03 -1.010607306172E-20 -3.825686955874E-04 9.915754872628E-01
 2.279019541751E+02 -1.150000000000E+01 -3.405274184153E-01 1.150331547243E-01 3.535105951476E-03 3.515119046914E-03 -6.267844990976E-20 -3.753808976363E-04 9.908780616308E-01
 2.277335129428E+02 -1.150000000000E+01 -3.225818935722E-01 1.201922484980E-01 3.490240033292E-03 3.470754089198E-03 -1.302023140080E-19 -3.682935430422E-04 9.901457084470E-01
 2.275566368018E+02 -1.150000000000E+01 -3.038600732722E-01 1.253686473930E-01 3.446374856016E-03 3.427384109585E-03 -6.195712086601E-20 -3.612981510307E-04 9.893766817470E-01
 2.273709027629E+02 -1.150000000000E+01 -2.843330070327E-01 1.305673494073E-01 3.403226094671E-03 3.384726935987E-03 -2.576410247920E-20 -3.543584211490E-04 9.885691424472E-01
 2.271758677645E+02 -1.150000000000E+01 -2.639713155984E-01 1.357920100847E-01 3.360435188622E-03 3.342427160169E-03 5.551071219205E-20 -3.474244097403E-04 9.877211641936E-01
 2.269710645818E+02 -1.150000000000E+01 -2.427466324503E-01 1.410442053815E-01 3.317898584579E-03 3.300382991544E-03 6.527062947207E-20 -3.404723210595E-04 9.868307155731E-01
 2.267560036239E+02 -1.150000000000E+01 -2.206313637693E-01 1.463239376650E-01 3.275639050449E-03 3.258618017710E-03 -1.815992447105E-19 -3.334935599184E-04 9.858956679298E-01
 2.265301703950E+02 -1.150000000000E+01 -1.975980391151E-01 1.516305146835E-01 3.233649401313E-03 3.217125001640E-03 -2.714369397284E-19 -3.264861427132E-04 9.849137843261E-01
 2.262930239907E+02 -1.150000000000E+01 -1.736194363628E-01 1.569636292859E-01 3.192079167388E-03 3.176051592733E-03 -2.350513796551E-19 -3.194739562322E-04 9.838827130029E-01
 2.260439986295E+02 -1.150000000000E+01 -1.486681808887E-01 1.623246456277E-01 3.151089842563E-03 3.135557067141E-03 -1.551431637994E-19 -3.124850298655E-04 9.827999940412E-01
 2.257824969396E+02 -1.150000000000E+01 -1.227148281265E-01 1.677170074738E-01 3.110642855991E-03 3.095601650940E-03 -5.435126825273E-20 -3.055276359116E-04 9.816630301721E-01
 2.255078939027E+02 -1.150000000000E+01 -9.572974073269E-02 1.731456927228E-01 3.070671365015E-03 3.056117830969E-03 -2.762430939652E-20 -2.986035802771E-04 9.804691039249E-01
 2.252195320502E+02 -1.150000000000E+01 -6.768302958870E-02 1.786158920440E-01 3.030890916958E-03 3.016823227051E-03 1.109509535765E-20 -2.916760493400E-04 9.792153567398E-01
 2.249167230719E+02 -1.150000000000E+01 -3.854562754760E-02 1.841306744370E-01 2.990862620029E-03 2.977282519934E-03 1.193799849723E-19 -2.846847672949E-04 9.778987959646E-01
 2.245987403596E+02 -1.150000000000E+01 -8.293276185063E-03 1.896898042500E-01 2.950572945543E-03 2.937483731530E-03 2.575054948414E-19 -2.776098974573E-04 9.765162624332E-01
 2.242648228250E+02 -1.150000000000E+01 2.309430739976E-02 1.952909562550E-01 2.910208286660E-03 2.897613427132E-03 1.260267054615E-19 -2.704546358297E-04 9.750644470650E-01
 2.239141698044E+02 -1.150000000000E+01 5.563484996029E-02 2.009314820681E-01 2.869835557949E-03 2.857737911300E-03 7.574449464319E-20 -2.632241598041E-04 9.735398687148E-01
 2.235459432461E+02 -1.150000000000E+01 8.934282870911E-02 2.066095293587E-01 2.829500764100E-03 2.817902188789E-03 6.260580234287E-20 -2.559265667780E-04 9.719388836789E-01
 2.231592586722E+02 -1.150000000000E+01 1.242307553808E-01 2.123243388144E-01 2.789180528350E-03 2.778082165184E-03 1.185049659417E-19 -2.485635943215E-04 9.702576464010E-01
 2.227531901290E+02 -1.150000000000E+01 1.603074933334E-01 2.180758357010E-01 2.748810627829E-03 2.738213143700E-03 1.141113651788E-19 -2.411322712525E-04 9.684921309957E-01
 2.223267643628E+02 -1.150000000000E+01 1.975775632304E-01 2.238640951770E-01 2.708338684412E-03 2.698242502808E-03 -6.126557175150E-20 -2.336272680688E-04 9.666381059250E-01
 2.218789591644E+02 -1.150000000000E+01 2.360400419199E-01 2.296890555620E-01 2.667751805252E-03 2.658156988835E-03 1.693049048215E-19 -2.260458488029E-04 9.646911268018E-01
 2.214087008643E+02 -1.150000000000E+01 2.756871444724E-01 2.355507623483E-01 2.627102564520E-03 2.618008500165E-03 1.470788793972E-19 -2.183911651730E-04 9.626465254969E-01
 2.209148618066E+02 -1.150000000000E+01 3.165038635615E-01 2.414494073983E-01 2.586300768449E-03 2.577706927202E-03 -5.891868120192E-20 -2.106505735007E-04 9.604993991591E-01
 2.203962576183E+02 -1.150000000000E+01 3.584665651384E-01 2.473847402997E-01 2.545143558341E-03 2.537049983302E-03 2.989520177817E-20 -2.027997986734E-04 9.582445983406E-01
 2.198516440893E+02 -1.150000000000E+01 4.015381663006E-01 2.533554138435E-01 2.503645393961E-03 2.496051859318E-03 -1.189064720682E-20 -1.948322716857E-04 9.558767134317E-01
 2.192797142947E+02 -1.150000000000E+01 4.456676542984E-01 2.593594966027E-01 2.461877911320E-03 2.454783600127E-03 -1.322134337812E-19 -1.867461349445E-04 9.533900621509E-01
 2.186790955838E+02 -1.150000000000E+01 4.907896030579E-01 2.653945878103E-01 2.419772745094E-03 2.413176307645E-03 3.724240654159E-20 -1.785316551468E-04 9.507786764511E-01
 2.180483461930E+02 -1.150000000000E+01 5.368205163383E-01 2.714576052880E-01 2.377320869060E-03 2.371220008884E-03 -2.148141062145E-20 -1.701850711948E-04 9.480362877958E-01
 2.173859518400E+02 -1.150000000000E+01 5.836565253757E-01 2.775454139903E-01 2.334462981206E-03 2.328854663686E-03 6.884067170191E-20 -1.616958336183E-04 9.451563123476E-01
 2.166903221680E+02 -1.150000000000E+01 6.311708624610E-01 2.836530082107E-01 2.291039147347E-03 2.285919722457E-03 2.748148888022E-19 -1.530454573267E-04 9.421318355132E-01
 2.159597867100E+02 -1.150000000000E+01 6.792060874078E-01 2.897717363220E-01 2.247083569908E-03 2.242448078599E-03 1.303070479015E-19 -1.442288253073E-04 9.389555943915E-01
 2.151925910988E+02 -1.150000000000E+01 7.275714196584E-01 2.958926314493E-01 2.202608699420E-03 2.198450879461E-03 6.962713868417E-20 -1.352358391396E-04 9.356199612991E-01
 2.143868930022E+02 -1.150000000000E+01 7.760377158241E-01 3.020080459741E-01 2.157524386573E-03 2.153836462236E-03 -2.355992271961E-20 -1.260513578806E-04 9.321169260964E-01
 2.135407576064E+02 -1.150000000000E+01 8.243265060108E-01 3.081053474969E-01 2.111887177408E-03 2.108659250980E-03 1.366976138795E-19 -1.166683392092E-04 9.284380765497E-01
 2.126521535296E+02 -1.150000000000E+01 8.721072147232E-01 3.141734061247E-01 2.065685516573E-03 2.062905285556E-03 -9.036664938304E-20 -1.070752561533E-04 9.245745805637E-01
 2.117189481364E+02 -1.150000000000E+01 9.189851043883E-01 3.201960609949E-01 2.018695742133E-03 2.016348129313E-03 -3.869127048284E-19 -9.725238234507E-05 9.205171658103E-01
 2.107389030068E+02 -1.150000000000E+01 9.644920141779E-01 3.261429546352E-01 1.970034840627E-03 1.968102046855E-03 -2.409943468202E-19 -8.715137196524E-05 9.162561000296E-01
 2.097096693128E+02 -1.150000000000E+01 1.008074669271E+00 3.319668134721E-01 1.917232509109E-03 1.915694656606E-03 -2.308710129265E-19 -7.665754280714E-05 9.117811709252E-01
 2.086287830369E+02 -1.150000000000E+01 1.049077253429E+00 3.376622445433E-01 1.860884524084E-03 1.859711848928E-03 -8.892650308318E-21 -6.590804996440E-05 9.070816653778E-01
 2.074936606041E+02 -1.150000000000E+01 1.086729056178E+00 3.432041162350E-01 1.808897557381E-03 1.808045888304E-03 1.246673184666E-19 -5.532005762267E-05 9.021463504527E-01
 2.063441148072E+02 -1.150000000000E+01 1.119039993622E+00 3.484211695452E-01 1.764754465016E-03 1.764175311376E-03 -4.134234432489E-20 -4.497149167325E-05 8.971483252486E-01
 2.051943982208E+02 -1.150000000000E+01 1.145321978323E+00 3.531389985101E-01 1.722481011294E-03 1.722124410191E-03 -1.991426511465E-19 -3.473752213806E-05 8.921495574818E-01
 2.040445364873E+02 -1.150000000000E+01 1.165404185750E+00 3.573675270899E-01 1.678957010662E-03 1.678769100425E-03 -2.058099101119E-19 -2.468608769467E-05 8.871501586405E-01
 2.028945623783E+02 -1.150000000000E+01 1.179121446065E+00 3.611394789320E-01 1.635913988540E-03 1.635839576907E-03 -9.510990158091E-20 -1.489998526022E-05 8.821502712099E-01
 2.017445104337E+02 -1.150000000000E+01 1.186327045608E+00 3.644511258756E-01 1.594609479845E-03 1.594593675680E-03 -7.745438982495E-21 -5.400289423961E-06 8.771500453640E-01
 2.005944176869E+02 -1.150000000000E+01 1.186881136059E+00 3.673258780140E-01 1.555144282637E-03 1.555132850326E-03 -1.659043640223E-20 3.813033091584E-06 8.721496421171E-01
 1.994443235331E+02 -1.150000000000E+01 1.180654316796E+00 3.697700454681E-01 1.517370989531E-03 1.517310696366E-03 -1.266353818142E-19 1.274002546556E-05 8.671492327525E-01
 1.982942695769E+02 -1.150000000000E+01 1.167524304218E+00 3.717536998298E-01 1.482006105052E-03 1.481845029028E-03 -9.571831834655E-20 2.138192642886E-05 8.621489981605E-01
 1.971442989329E+02 -1.150000000000E+01 1.147406922808E+00 3.732981969095E-01 1.449318450970E-03 1.449006536382E-03 -5.585848568327E-20 2.973892245521E-05 8.571491257951E-01
 1.959944553578E+02 -1.150000000000E+01 1.120257344173E+00 3.744114919142E-01 1.418640947343E-03 1.418130498612E-03 -1.986399169106E-19 3.780264514867E-05 8.521498059037E-01
 1.948447831527E+02 -1.150000000000E+01 1.086040397384E+00 3.750887624173E-01 1.389901820854E-03 1.389147429073E-03 -7.386835372820E-20 4.558679475738E-05 8.471512310989E-01
 1.936953266306E+02 -1.150000000000E+01 1.044739316897E+00 3.753540644357E-01 1.363422594232E-03 1.362381137892E-03 8.425343120433E-20 5.311479146668E-05 8.421535940460E-01
 1.925461300462E+02 -1.150000000000E+01 9.963465055932E-01 3.752111963781E-01 1.339286031540E-03 1.337916904605E-03 -1.958214544844E-19 6.040320917876E-05 8.371570871576E-01
 1.913972356656E+02 -1.150000000000E+01 9.408988519915E-01 3.746399180684E-01 1.317584916909E-03 1.315850063894E-03 -2.779445446943E-19 6.747246213363E-05 8.321618941983E-01
 1.902486840697E+02 -1.150000000000E+01 8.784527390092E-01 3.736791363387E-01 1.298589288568E-03 1.296453575250E-03 -1.421999293690E-19 7.434426915193E-05 8.271681916073E-01
 1.891005128995E+02 -1.150000000000E+01 8.090962952539E-01 3.723313235502E-01 1.282269615653E-03 1.279700513024E-03 -2.706310745707E-19 8.104067108245E-05 8.221761430413E-01
 1.879527552630E+02 -1.150000000000E+01 7.329565024448E-01 3.706244872236E-01 1.268050502809E-03 1.265019439185E-03 -4.675596504141E-19 8.754675715749E-05 8.171858924477E-01
 1.868054433619E+02 -1.150000000000E+01 6.501658151611E-01 3.685494696125E-01 1.255576239685E-03 1.252057609585E-03 -5.633856119247E-19 9.386554979914E-05 8.121975798345E-01
 1.856586035659E+02 -1.150000000000E+01 5.608696264122E-01 3.660986956152E-01 1.245456423510E-03 1.241424849228E-03 -2.462331750340E-19 1.000708898247E-04 8.072113198519E-01
 1.845122610897E+02 -1.150000000000E+01 4.652183581858E-01 3.633242798429E-01 1.238139599062E-03 1.233570858849E-03 1.969674031828E-19 1.062145701643E-04 8.022272221293E-01
 1.833664350865E+02 -1.150000000000E+01 3.633977804251E-01 3.602008907354E-01 1.233489736479E-03 1.228361919567E-03 6.152495981118E-19 1.123105921964E-04 7.972453699414E-01
 1.822211380174E+02 -1.150000000000E+01 2.556295672775E-01 3.567626496342E-01 1.231111297132E-03 1.225406460366E-03 6.342300143532E-19 1.183409199023E-04 7.922658174669E-01
 1.810763801141E+02 -1.150000000000E+01 1.421378305447E-01 3.530253129223E-01 1.230628127957E-03 1.224331436949E-03 2.937875660631E-19 1.242956042451E-04 7.872886091916E-01
 1.799321657110E+02 -1.150000000000E+01 2.315030638154E-02 3.489930480537E-01 1.232127455847E-03 1.225224611889E-03 -4.156604255239E-19 1.302101534024E-04 7.823137639608E-01
 1.787884971780E+02 -1.150000000000E+01 -1.011040166125E-01 3.446790199261E-01 1.235818329544E-03 1.228295087055E-03 -2.580385247413E-19 1.361277092914E-04 7.773412920784E-01
 1.776453723400E+02 -1.150000000000E+01 -2.303871599311E-01 3.400979669354E-01 1.241581302610E-03 1.233425374138E-03 6.915277384630E-19 1.420536495995E-04 7.723711840870E-01
 1.765027846073E+02 -1.150000000000E+01 -3.644502916069E-01 3.352400243615E-01 1.249355680032E-03 1.240556308341E-03 3.144893547760E-19 1.479984126563E-04 7.674034113361E-01
 1.753607241593E+02 -1.150000000000E+01 -5.030437643287E-01 3.301380301853E-01 1.259193270464E-03 1.249740512582E-03 7.324911590089E-20 1.539830668577E-04 7.624379311274E-01
 1.742191778627E+02 -1.150000000000E+01 -6.459153210683E-01 3.248045309280E-01 1.270882673667E-03 1.260769059685E-03 5.267275191952E-19 1.599972841786E-04 7.574746863598E-01
 1.730781296248E+02 -1.150000000000E+01 -7.928118952987E-01 3.192468379093E-01 1.284365711241E-03 1.273585357118E-03 7.193748766122E-19 1.660455206465E-04 7.525136070642E-01
 1.719375606735E+02 -1.150000000000E+01 -9.434805721162E-01 3.134831116782E-01 1.299645397709E-03 1.288193718304E-03 5.038308950620E-19 1.721368320149E-04 7.475546116238E-01
 1.707974497024E+02 -1.150000000000E+01 -1.097668432018E+00 3.075203127635E-01 1.316559131020E-03 1.304433822549E-03 -1.394276677491E-19 1.782604298092E-04 7.425976074018E-01
 1.696577732530E+02 -1.150000000000E+01 -1.255124123005E+00 3.013759255244E-01 1.334848406712E-03 1.322050001671E-03 -4.714200204595E-19 1.843933462474E-04 7.376424924045E-01
 1.685185079705E+02 -1.150000000000E+01 -1.415612538625E+00 2.950670389321E-01 1.354446145790E-03 1.340976187824E-03 -1.013486319812E-18 1.905372473325E-04 7.326891650890E-01
 1.673796299053E+02 -1.150000000000E+01 -1.578909417159E+00 2.886020805821E-01 1.375411265357E-03 1.361271168140E-03 -1.216169020685E-18 1.967092174628E-04 7.277375213274E-01
 1.662411146823E+02 -1.150000000000E+01 -1.744792553260E+00 2.819934151348E-01 1.397683299619E-03 1.382876214442E-03 -5.839581839962E-19 2.029035908373E-04 7.227874551403E-01
 1.651029359779E+02 -1.150000000000E+01 -1.913046680394E+00 2.752516282469E-01 1.421160564667E-03 1.405691986282E-03 -2.946693504997E-19 2.091066122718E-04 7.178388520777E-01
 1.639650673199E+02 -1.150000000000E+01 -2.083458299699E+00 2.683876940291E-01 1.445632983847E-03 1.429511455778E-03 -1.061195509542E-18 2.152909139462E-04 7.128915970430E-01
 1.628274822772E+02 -1.150000000000E+01 -2.255823899165E+00 2.614139597743E-01 1.471025125155E-03 1.454260902537E-03 -1.508938480180E-18 2.214471740592E-04 7.079455751182E-01
 1.616901553499E+02 -1.150000000000E+01 -2.429953055354E+00 2.543402092216E-01 1.497336466260E-03 1.479940069976E-03 -2.225222862210E-19 2.275803179227E-04 7.030006754343E-01
 1.605530605903E+02 -1.150000000000E+01 -2.605658285497E+00 2.471786462692E-01 1.524306920858E-03 1.506292013423E-03 1.415658656952E-21 2.336558831795E-04 6.980567851752E-01
 1.594161739211E+02 -1.150000000000E+01 -2.782769216222E+00 2.399352096441E-01 1.551930191434E-03 1.533310961522E-03 -1.287590512467E-19 2.396749784231E-04 6.931137996569E-01
 1.582794717619E+02 -1.150000000000E+01 -2.961124419910E+00 2.326206838475E-01 1.580278322024E-03 1.561068299220E-03 1.485471630025E-18 2.456517232970E-04 6.881716163563E-01
 1.571429314940E+02 -1.150000000000E+01 -3.140565433804E+00 2.252409781313E-01 1.609251967863E-03 1.589466862940E-03 1.425526963508E-18 2.515681821321E-04 6.832301369303E-01
 1.560065299516E+02 -1.150000000000E+01 -3.320943048825E+00 2.178056133834E-01 1.638806375427E-03 1.618463227971E-03 -1.639173063844E-18 2.574155996558E-04 6.782892606592E-01
 1.548702445607E+02 -1.150000000000E+01 -3.502110019952E+00 2.103216033358E-01 1.668702109684E-03 1.647821048040E-03 -7.989268227299E-19 2.631583051298E-04 6.733488893942E-01
 1.537340548288E+02 -1.150000000000E+01 -3.683929479762E+00 2.027934195962E-01 1.698871159826E-03 1.677473390925E-03 1.641525011178E-18 2.687863203799E-04 6.684089340382E-01
 1.525979416769E+02 -1.150000000000E+01 -3.866276789671E+00 1.952272193291E-01 1.729437579313E-03 1.707542584346E-03 1.255456418167E-18 2.743220145701E-04 6.634693116387E-01
 1.514618854170E+02 -1.150000000000E+01 -4.049029245657E+00 1.876269540166E-01 1.760319156251E-03 1.737947650065E-03 8.535481189436E-19 2.797524744611E-04 6.585299365958E-01
 1.503258675629E+02 -1.150000000000E+01 -4.232072706139E+00 1.799968677051E-01 1.791498554734E-03 1.768672008087E-03 1.465134686230E-20 2.850725860796E-04 6.535907285343E-01
 1.491898706156E+02 -1.150000000000E+01 -4.415296923749E+00 1.723404063531E-01 1.822911262105E-03 1.799651979311E-03 2.346455101496E-20 2.902726635326E-04 6.486516113722E-01
 1.480538779532E+02 -1.150000000000E+01 -4.598595005035E+00 1.646591388071E-01 1.854432224033E-03 1.830764312372E-03 1.499772517034E-18 2.953318568267E-04 6.437125128400E-01
 1.469178743573E+02 -1.150000000000E+01 -4.781869078883E+00 1.569562610459E-01 1.886172706015E-03 1.862119182391E-03 1.742698740971E-18 3.002659110204E-04 6.387733667708E-01
 1.457818442474E+02 -1.150000000000E+01 -4.965022836054E+00 1.492335427044E-01 1.918259367703E-03 1.893842416832E-03 -4.353799378525E-19 3.050899342735E-04 6.338341054235E-01
 1.446457723003E+02 -1.150000000000E+01 -5.147959557227E+00 1.414941991311E-01 1.950719362450E-03 1.925962170265E-03 -1.535120614767E-18 3.097994132262E-04 6.288946621751E-01
 1.435096437698E+02 -1.150000000000E+01 -5.330582055362E+00 1.337439019531E-01 1.983324820915E-03 1.958253723566E-03 -2.740039861877E-19 3.143558082762E-04 6.239549729122E-01
 1.423734420337E+02 -1.150000000000E+01 -5.512795784242E+00 1.259862883829E-01 2.015741369159E-03 1.990386185600E-03 1.502514958604E-18 3.187097602028E-04 6.190149653639E-01
 1.412371563399E+02 -1.150000000000E+01 -5.694519903472E+00 1.182210014428E-01 2.048105322372E-03 2.022493304669E-03 1.410963252061E-18 3.228869516894E-04 6.140745927823E-01
 1.401007745885E+02 -1.150000000000E+01 -5.875679388149E+00 1.104460919589E-01 2.080798571614E-03 2.054952396221E-03 7.712718228331E-19 3.269449431243E-04 6.091338025587E-01
 1.389642849061E+02 -1.150000000000E+01 -6.056196165609E+00 1.026627959348E-01 2.113916124784E-03 2.087858910199E-03 -6.020329458759E-20 3.308868323913E-04 6.041925430698E-01
 1.378276745865E+02 -1.150000000000E+01 -6.235986039955E+00 9.487409115506E-02 2.147251415647E-03 2.121010337002E-03 8.889485924398E-19 3.346688001413E-04 5.992507590720E-01
 1.366909310175E+02 -1.150000000000E+01 -6.414964359392E+00 8.708469025247E-02 2.180628988026E-03 2.154233946950E-03 1.135487656184E-18 3.382575263951E-04 5.943083957283E-01
 1.355540424965E+02 -1.150000000000E+01 -6.593051100609E+00 7.929929358572E-02 2.214102997077E-03 2.187583110983E-03 -3.459508146380E-19 3.416596612574E-04 5.893654021585E-01
 1.344169981385E+02 -1.150000000000E+01 -6.770169681917E+00 7.152093856501E-02 2.247669595100E-03 2.221053447979E-03 3.709913851924E-19 3.448755291360E-04 5.844217310371E-01
 1.332797871856E+02 -1.150000000000E+01 -6.946245326103E+00 6.375185520832E-02 2.281204264035E-03 2.254521349410E-03 4.128190513896E-19 3.478866723582E-04 5.794773355898E-01
 1.321424006171E+02 -1.150000000000E+01 -7.121209749814E+00 5.599269265514E-02 2.314783896049E-03 2.288062522373E-03 -3.474053128298E-19 3.507034929814E-04 5.745321765961E-01
 1.310048295058E+02 -1.150000000000E+01 -7.294996245843E+00 4.824381885704E-02 2.348568629990E-03 2.321835499506E-03 -8.905486595785E-19 3.533452480886E-04 5.695862152425E-01
 1.298670649159E+02 -1.150000000000E+01 -7.467536073445E+00 4.050608527541E-02 2.382561881217E-03 2.355844550899E-03 -5.801984053193E-19 3.558028461179E-04 5.646394126777E-01
 1.287290977699E+02 -1.150000000000E+01 -7.638758020279E+00 3.278274883165E-02 2.416694310462E-03 2.390021896838E-03 6.727400420054E-20 3.580566253092E-04 5.596917294344E-01
 1.275909192303E+02 -1.150000000000E+01 -7.808590787220E+00 2.507812945446E-02 2.450980490623E-03 2.424382451141E-03 5.020095180959E-19 3.601008509465E-04 5.547431270883E-01
 1.264525208062E+02 -1.150000000000E+01 -7.976963630723E+00 1.739742920466E-02 2.485419070605E-03 2.458924793909E-03 5.734867519421E-19 3.619309700149E-04 5.497935687225E-01
 1.253138943232E+02 -1.150000000000E+01 -8.143806070057E+00 9.745818977640E-03 2.519750542265E-03 2.493391076686E-03 3.859055842618E-19 3.635115235287E-04 5.448430187966E-01
 1.241750326612E+02 -1.150000000000E+01 -8.309052906545E+00 2.124466952354E-03 2.553798304713E-03 2.527604970519E-03 2.418157610039E-19 3.648225102956E-04 5.398914463532E-01
 1.230359302556E+02 -1.150000000000E+01 -8.472647832755E+00 -5.468461556962E-03 2.587922605065E-03 2.561922374960E-03 4.797031958995E-19 3.659144352866E-04 5.349388271985E-01
 1.218965817352E+02 -1.150000000000E+01 -8.634534143694E+00 -1.303374740820E-02 2.622557796626E-03 2.596774289981E-03 1.021895950343E-18 3.668357981049E-04 5.299851379793E-01
 1.207569806054E+02 -1.150000000000E+01 -8.794645292332E+00 -2.056631500885E-02 2.657556982302E-03 2.632016759915E-03 8.632505122850E-19 3.675489940064E-04 5.250303504582E-01
 1.196171200326E+02 -1.150000000000E+01 -8.952910033698E+00 -2.805823863985E-02 2.692373448246E-03 2.667107997198E-03 4.050235660764E-20 3.679736931833E-04 5.200744349244E-01
 1.184769943633E+02 -1.150000000000E+01 -9.109263176788E+00 -3.550510592429E-02 2.726811683661E-03 2.701852275405E-03 2.013585844147E-19 3.680906348640E-04 5.151173667969E-01
 1.173365998048E+02 -1.150000000000E+01 -9.263650825816E+00 -4.290698054247E-02 2.761256627708E-03 2.736629206409E-03 6.078050084933E-19 3.679575638070E-04 5.101591295862E-01
 1.161959329209E+02 -1.150000000000E+01 -9.416019631625E+00 -5.026526251101E-02 2.796011493727E-03 2.771738963427E-03 -1.749336695086E-19 3.676097223799E-04 5.051997083516E-01
 1.150549898901E+02 -1.150000000000E+01 -9.566311154920E+00 -5.757799110178E-02 2.830962218911E-03 2.807069057005E-03 -7.186780545151E-19 3.670195678432E-04 5.002390864789E-01
 1.139137669028E+02 -1.150000000000E+01 -9.714464572179E+00 -6.484107544767E-02 2.865918618253E-03 2.842430899728E-03 -7.236798967682E-19 3.661536531956E-04 4.952772474037E-01