TITLE = "023.02"


# Column       1     2     3     4       5      6      7       8       9
VARIABLES =   "X"   "Y"   "Z"   "CP"   "CF"   "CFX"   "CFY"   "CFZ"   "X/C" 

#---------------------------------------------------
#   PARTICIPANT, GRID, AND SOLVER INFORMATION
#---------------------------------------------------
DATASETAUXDATA ParticipantID   = "023.02"
DATASETAUXDATA SubmissionDate  = "26/10/2024"
DATASETAUXDATA Name            = "Baptiste ARNOULD"
DATASETAUXDATA Email           = "baptiste.arnould@polymtl.ca"
DATASETAUXDATA Institution     = "Polytechnique Montreal"
DATASETAUXDATA SolverName      = "CHAMPS"
DATASETAUXDATA BasicAlgorithm  = "RANS"
DATASETAUXDATA TurbulenceModel = "SA"
DATASETAUXDATA GridId          = "Cadence_Grids.REV01 Unstructured"
DATASETAUXDATA Discretization  = "Finite volume"
DATASETAUXDATA Order           = "2"
DATASETAUXDATA DistanceCalc    = "EIKONAL_2N_ORDER"
DATASETAUXDATA Notes           = "X/C is the last variable instead of beeing the 4th one, therefore Cp is the 4th variable, CF is the 5th etc."



ZONE T="023.02 - Mesh 5 - AOA 3.10 - WING SECTION  1"
AUXDATA GridLevel       = "5"
AUXDATA Mach            = "0.73"
AUXDATA Re              = "3000000.0"
AUXDATA Alpha           = "3.10"
AUXDATA Tstatic         = "273.0"
AUXDATA CLtotal         = "9.875599817095e-01"
AUXDATA Eta             = "0.5"
AUXDATA Dt              = "-"
AUXDATA CtuStart        = "-"
AUXDATA CtuAvg          = "-"
AUXDATA GridFileName    = "ONERA-OAT15A_230mmChord_780mmSpan_upZ_2024_09_05_Unstructured_Level-5.cgns"

 2.300000000000E+02 -1.150000000000E+01 5.749310000000E-01 -1.621054130944E-02 1.593210748811E-04 8.770574754494E-05 9.804395264768E-20 -1.023608356971E-04 1.000000000000E+00
 2.300000000000E+02 -1.150000000000E+01 5.353043793103E-01 -2.037346084288E-02 9.134257422003E-05 1.358708169098E-05 5.445820112696E-20 -6.948137138107E-05 1.000000000000E+00
 2.300000000000E+02 -1.150000000000E+01 4.956777586207E-01 -1.825542635337E-02 1.939981437941E-05 2.153489735078E-08 2.820710055877E-20 1.928942413536E-05 1.000000000000E+00
 2.300000000000E+02 -1.150000000000E+01 4.560511379310E-01 -1.826748752326E-02 1.109582465500E-05 -1.256778583692E-06 3.015606053265E-20 6.724158568466E-06 1.000000000000E+00
 2.300000000000E+02 -1.150000000000E+01 4.164245172414E-01 -1.821767429963E-02 1.400087765675E-05 -3.753617741165E-07 2.017992974339E-20 -1.398707539704E-05 1.000000000000E+00
 2.300000000000E+02 -1.150000000000E+01 3.767978965517E-01 -1.818562063871E-02 3.235926326913E-05 -2.886745669583E-07 -1.758068465845E-21 -3.235790285315E-05 1.000000000000E+00
 2.300000000000E+02 -1.150000000000E+01 3.371712758621E-01 -1.815116222386E-02 4.999201157827E-05 -3.032281456316E-07 -1.575629310535E-20 -4.999106497804E-05 1.000000000000E+00
 2.300000000000E+02 -1.150000000000E+01 2.975446551724E-01 -1.812917743642E-02 6.798144521628E-05 -3.073610029469E-07 -2.046270122542E-20 -6.798073844570E-05 1.000000000000E+00
 2.300000000000E+02 -1.150000000000E+01 2.579180344828E-01 -1.812318286256E-02 8.605725465870E-05 -3.073237545675E-07 -1.554930008412E-20 -8.605669941297E-05 1.000000000000E+00
 2.300000000000E+02 -1.150000000000E+01 2.182914137931E-01 -1.813540542998E-02 1.040513052168E-04 -3.047606763164E-07 -1.380673114050E-20 -1.040508551543E-04 1.000000000000E+00
 2.300000000000E+02 -1.150000000000E+01 1.786647931034E-01 -1.816649901067E-02 1.218822887496E-04 -3.018612593097E-07 -5.381517456884E-21 -1.218819127079E-04 1.000000000000E+00
 2.300000000000E+02 -1.150000000000E+01 1.390381724138E-01 -1.821644203750E-02 1.395815419693E-04 -3.003265457821E-07 6.942225866409E-21 -1.395812175471E-04 1.000000000000E+00
 2.300000000000E+02 -1.150000000000E+01 9.941155172414E-02 -1.828472514547E-02 1.572797100965E-04 -3.017860107831E-07 4.041526823365E-21 -1.572794198141E-04 1.000000000000E+00
 2.300000000000E+02 -1.150000000000E+01 5.978493103448E-02 -1.837045047323E-02 1.752069348862E-04 -3.078867364192E-07 4.590340641341E-21 -1.752066639873E-04 1.000000000000E+00
 2.300000000000E+02 -1.150000000000E+01 2.015831034483E-02 -1.847245046984E-02 1.936935440574E-04 -3.201742365473E-07 2.378347919746E-21 -1.936932792799E-04 1.000000000000E+00
 2.300000000000E+02 -1.150000000000E+01 -1.946831034483E-02 -1.858979175805E-02 2.131369035843E-04 -3.390822844402E-07 -4.796607967244E-21 -2.131366338028E-04 1.000000000000E+00
 2.300000000000E+02 -1.150000000000E+01 -5.909493103448E-02 -1.872325473105E-02 2.338472452552E-04 -3.610293519457E-07 -9.098567537883E-21 -2.338469664967E-04 1.000000000000E+00
 2.300000000000E+02 -1.150000000000E+01 -9.872155172414E-02 -1.887856047774E-02 2.556059641346E-04 -3.721424497992E-07 1.356685118847E-21 -2.556056927340E-04 1.000000000000E+00
 2.300000000000E+02 -1.150000000000E+01 -1.383481724138E-01 -1.907158417433E-02 2.766902067475E-04 -3.375476272205E-07 9.503665823297E-21 -2.766899968497E-04 1.000000000000E+00
 2.300000000000E+02 -1.150000000000E+01 -1.779747931034E-01 -1.933299540318E-02 2.921902257303E-04 -1.893213996736E-07 3.793264618924E-21 -2.921901409744E-04 1.000000000000E+00
 2.300000000000E+02 -1.150000000000E+01 -2.176014137931E-01 -1.970269289711E-02 2.920604528130E-04 1.715233082992E-07 -8.248274156294E-21 -2.920602947952E-04 1.000000000000E+00
 2.300000000000E+02 -1.150000000000E+01 -2.572280344828E-01 -2.019245700453E-02 2.612452820917E-04 8.148977572541E-07 -9.008913138578E-21 -2.612435760108E-04 1.000000000000E+00
 2.300000000000E+02 -1.150000000000E+01 -2.968546551724E-01 -2.069430678708E-02 1.873766422676E-04 1.605353234696E-06 -9.485819813491E-21 -1.873678810791E-04 1.000000000000E+00
 2.300000000000E+02 -1.150000000000E+01 -3.364812758621E-01 -2.083807331610E-02 8.505376125735E-05 1.835107897575E-06 -1.626033819677E-20 -8.502431668226E-05 1.000000000000E+00
 2.300000000000E+02 -1.150000000000E+01 -3.761078965517E-01 -1.999451463011E-02 3.348654750709E-05 2.695730716529E-07 -9.475436852980E-21 -3.345531816356E-05 1.000000000000E+00
 2.300000000000E+02 -1.150000000000E+01 -4.157345172414E-01 -1.745139249212E-02 2.265744775729E-04 -3.898482632468E-06 1.081831680804E-20 -2.265388809447E-04 1.000000000000E+00
 2.300000000000E+02 -1.150000000000E+01 -4.553611379310E-01 -1.450454262718E-02 9.239652543305E-04 -4.046945886776E-06 1.397690803617E-20 -9.239382942780E-04 1.000000000000E+00
 2.300000000000E+02 -1.150000000000E+01 -4.949877586207E-01 -1.200387509582E-02 3.594443913703E-03 -7.924299488877E-05 -4.079447889910E-21 -3.593372459991E-03 1.000000000000E+00
 2.300000000000E+02 -1.150000000000E+01 -5.346143793103E-01 -9.510595822056E-02 3.463495256883E-03 -4.640154904836E-04 -1.877321342326E-21 -3.317199534938E-03 1.000000000000E+00
 2.300000000000E+02 -1.150000000000E+01 -5.742410000000E-01 -8.196860944246E-02 2.272590779130E-03 1.266012780778E-03 -1.866280476191E-21 -8.815052074490E-05 1.000000000000E+00
 2.299577155682E+02 -1.150000000000E+01 -5.693868101282E-01 1.623522806599E-02 4.013570317534E-03 3.965815105113E-03 1.683035551300E-21 1.260099003031E-04 9.998161546444E-01
 2.299133168571E+02 -1.150000000000E+01 -5.642904526566E-01 2.199977195048E-02 4.331182965567E-03 4.304685883061E-03 5.464133695936E-21 -4.745348584974E-04 9.996231167700E-01
 2.298666980810E+02 -1.150000000000E+01 -5.589404922654E-01 2.983108111995E-02 4.215133483705E-03 4.184730729954E-03 -1.631420530009E-20 -5.049976560317E-04 9.994204264390E-01
 2.298177481471E+02 -1.150000000000E+01 -5.533250881929E-01 3.516464379954E-02 4.485535974159E-03 4.455910045751E-03 -3.113828545452E-20 -5.146698314837E-04 9.992076006397E-01
 2.297663503871E+02 -1.150000000000E+01 -5.474320063552E-01 4.011696676276E-02 4.534878584276E-03 4.505420960237E-03 -1.270436412292E-20 -5.160478023036E-04 9.989841321177E-01
 2.297123822736E+02 -1.150000000000E+01 -5.412486378087E-01 4.467016634342E-02 4.479328737055E-03 4.450337855608E-03 3.554948947918E-20 -5.088013529285E-04 9.987494881463E-01
 2.296557151233E+02 -1.150000000000E+01 -5.347620248444E-01 4.913457566132E-02 4.402880222787E-03 4.374445571122E-03 1.500285394322E-20 -4.995799635737E-04 9.985031092317E-01
 2.295962137827E+02 -1.150000000000E+01 -5.279588962234E-01 5.357414609265E-02 4.328351958444E-03 4.300461580904E-03 -4.138643483082E-20 -4.905718806704E-04 9.982444077507E-01
 2.295337362985E+02 -1.150000000000E+01 -5.208257133252E-01 5.799367132352E-02 4.259150034046E-03 4.231784422523E-03 -5.531731899035E-20 -4.820367846355E-04 9.979727665154E-01
 2.294681335701E+02 -1.150000000000E+01 -5.133487292826E-01 6.237897520198E-02 4.193845829605E-03 4.166996676066E-03 -3.844483479395E-20 -4.737945969471E-04 9.976875372613E-01
 2.293992489825E+02 -1.150000000000E+01 -5.055140635337E-01 6.672527277247E-02 4.131502442813E-03 4.105166856982E-03 -4.417356893614E-20 -4.657437177359E-04 9.973880390543E-01
 2.293269175865E+02 -1.150000000000E+01 -4.973077150743E-01 7.103498596755E-02 4.072023122949E-03 4.046196281891E-03 -3.111565119345E-20 -4.578947355322E-04 9.970735547237E-01
 2.292509665244E+02 -1.150000000000E+01 -4.887148054265E-01 7.531425346969E-02 4.015325288576E-03 3.990000232967E-03 1.259589295302E-20 -4.502608945971E-04 9.967433327149E-01
 2.291712150353E+02 -1.150000000000E+01 -4.797192208362E-01 7.956988615146E-02 3.960962046010E-03 3.936132384302E-03 5.026630394915E-21 -4.428111138154E-04 9.963965871098E-01
 2.290874727231E+02 -1.150000000000E+01 -4.703043409968E-01 8.380768543718E-02 3.908505701386E-03 3.884167011749E-03 -3.649759886085E-20 -4.355030111110E-04 9.960324901004E-01
 2.289995396213E+02 -1.150000000000E+01 -4.604531927692E-01 8.803187001941E-02 3.857674759195E-03 3.833825142795E-03 -9.809134366706E-21 -4.282974102421E-04 9.956501722664E-01
 2.289072057067E+02 -1.150000000000E+01 -4.501485001617E-01 9.224537359142E-02 3.808387603147E-03 3.785025413238E-03 6.392230532372E-20 -4.211864544478E-04 9.952487204638E-01
 2.288102498807E+02 -1.150000000000E+01 -4.393726684146E-01 9.645115764510E-02 3.760856891200E-03 3.737977064550E-03 6.718150359334E-20 -4.142115823622E-04 9.948271733941E-01
 2.287084402042E+02 -1.150000000000E+01 -4.281069308879E-01 1.006535805107E-01 3.715169802007E-03 3.692764105335E-03 5.995203154187E-20 -4.074053178682E-04 9.943845226268E-01
 2.286015356088E+02 -1.150000000000E+01 -4.163308858254E-01 1.048583841127E-01 3.671068929163E-03 3.649128230606E-03 6.710975453792E-20 -4.007610160531E-04 9.939197200383E-01
 2.284892786864E+02 -1.150000000000E+01 -4.040227382958E-01 1.090718156429E-01 3.628323787737E-03 3.606838952600E-03 3.022423744331E-20 -3.942656635910E-04 9.934316464625E-01
 2.283714012160E+02 -1.150000000000E+01 -3.911600126089E-01 1.133000335206E-01 3.586831511196E-03 3.565793706544E-03 2.982705877537E-20 -3.879106246040E-04 9.929191357219E-01
 2.282476244144E+02 -1.150000000000E+01 -3.777195806323E-01 1.175488995085E-01 3.546405205530E-03 3.525806782458E-03 7.048305398527E-20 -3.816746210922E-04 9.923809757148E-01
 2.281176505809E+02 -1.150000000000E+01 -3.636767760739E-01 1.218235330002E-01 3.506737127059E-03 3.486573034029E-03 1.136977183942E-19 -3.755167506820E-04 9.918158720908E-01
 2.279811705611E+02 -1.150000000000E+01 -3.490069350254E-01 1.261277949037E-01 3.467636810280E-03 3.447904074492E-03 6.394719549629E-20 -3.694070612135E-04 9.912224807005E-01
 2.278378572394E+02 -1.150000000000E+01 -3.336850756971E-01 1.304645824635E-01 3.429115149064E-03 3.409811560399E-03 5.355024294433E-20 -3.633384341205E-04 9.905993793016E-01
 2.276873688101E+02 -1.150000000000E+01 -3.176856817221E-01 1.348365812561E-01 3.391184009534E-03 3.372307515111E-03 6.757520988018E-20 -3.573093260120E-04 9.899450817832E-01
 2.275293457730E+02 -1.150000000000E+01 -3.009824099835E-01 1.392467247156E-01 3.353787664512E-03 3.335336282695E-03 -5.860132990979E-20 -3.513153556595E-04 9.892580251000E-01
 2.273634103898E+02 -1.150000000000E+01 -2.835481058392E-01 1.436979514563E-01 3.316736891845E-03 3.298710147719E-03 -4.031601257603E-20 -3.453314513464E-04 9.885365669120E-01
 2.271891668518E+02 -1.150000000000E+01 -2.653551104951E-01 1.481922918649E-01 3.279783815557E-03 3.262183532033E-03 2.405502553616E-20 -3.393217492729E-04 9.877789863122E-01
 2.270061980212E+02 -1.150000000000E+01 -2.463762723615E-01 1.527303610297E-01 3.242872702868E-03 3.225701968833E-03 2.322653803131E-20 -3.332699450520E-04 9.869834696573E-01
 2.268140666648E+02 -1.150000000000E+01 -2.265847486015E-01 1.573117433810E-01 3.206035693353E-03 3.189298141677E-03 -3.874102346637E-20 -3.271709239213E-04 9.861481159337E-01
 2.266123133545E+02 -1.150000000000E+01 -2.059535627128E-01 1.619355210383E-01 3.169239177846E-03 3.152938708687E-03 3.265682844684E-21 -3.210186044637E-04 9.852709276284E-01
 2.264004549097E+02 -1.150000000000E+01 -1.844556729080E-01 1.666007601763E-01 3.132549038087E-03 3.116688623516E-03 -7.355675979778E-21 -3.148235707984E-04 9.843498039554E-01
 2.261779865958E+02 -1.150000000000E+01 -1.620643019287E-01 1.713074001815E-01 3.096139895896E-03 3.080720550729E-03 -1.258426666426E-20 -3.086121079173E-04 9.833825504166E-01
 2.259443743472E+02 -1.150000000000E+01 -1.387510175791E-01 1.760569438813E-01 3.060053657774E-03 3.045075012768E-03 4.178739372231E-20 -3.023983564725E-04 9.823668449877E-01
 2.256990601643E+02 -1.150000000000E+01 -1.144866809057E-01 1.808522812994E-01 3.024245570971E-03 3.009706401880E-03 6.827493469754E-20 -2.961870818543E-04 9.813002615838E-01
 2.254414573640E+02 -1.150000000000E+01 -8.924180999215E-02 1.856972307671E-01 2.988689153787E-03 2.974587883863E-03 1.572933539075E-19 -2.899790408774E-04 9.801802494086E-01
 2.251709497782E+02 -1.150000000000E+01 -6.298667392592E-02 1.905955009338E-01 2.953108684505E-03 2.939445821880E-03 1.721099627246E-19 -2.837377719821E-04 9.790041294706E-01
 2.248868905373E+02 -1.150000000000E+01 -3.569237757010E-02 1.955488445876E-01 2.917166384227E-03 2.903945333733E-03 1.534184808426E-19 -2.774149306438E-04 9.777690892927E-01
 2.245885994978E+02 -1.150000000000E+01 -7.334310810911E-03 2.005564203486E-01 2.880914642738E-03 2.868139823922E-03 -1.997585648889E-19 -2.709996229119E-04 9.764721717294E-01
 2.242753625133E+02 -1.150000000000E+01 2.210956184712E-02 2.056159554642E-01 2.844496858035E-03 2.832172790313E-03 -4.291047120625E-19 -2.644941340480E-04 9.751102717971E-01
 2.239464283118E+02 -1.150000000000E+01 5.265924925068E-02 2.107250137822E-01 2.807945819515E-03 2.796076520052E-03 -8.866827477162E-20 -2.579013753741E-04 9.736801230948E-01
 2.236010123981E+02 -1.150000000000E+01 8.433187535916E-02 2.158817666264E-01 2.771314146014E-03 2.759902738197E-03 8.823674384170E-20 -2.512291383686E-04 9.721783147744E-01
 2.232382839757E+02 -1.150000000000E+01 1.171432026788E-01 2.210852728636E-01 2.734597740068E-03 2.723646658561E-03 -6.253404903286E-20 -2.444802487951E-04 9.706012346769E-01
 2.228573751984E+02 -1.150000000000E+01 1.511058819998E-01 2.263352035017E-01 2.697751020314E-03 2.687262214607E-03 -1.285204259210E-19 -2.376532486785E-04 9.689451095584E-01
 2.224573726199E+02 -1.150000000000E+01 1.862290796240E-01 2.316314151610E-01 2.660733605600E-03 2.650708754005E-03 3.055040650968E-19 -2.307442549235E-04 9.672059679126E-01
 2.220373200579E+02 -1.150000000000E+01 2.225173136440E-01 2.369736742921E-01 2.623516278479E-03 2.613956826274E-03 3.814046807274E-19 -2.237490317576E-04 9.653796524255E-01
 2.215962083517E+02 -1.150000000000E+01 2.599697809674E-01 2.423617395153E-01 2.586137261635E-03 2.577044082332E-03 3.851354933402E-19 -2.166696537355E-04 9.634617754422E-01
 2.211329808553E+02 -1.150000000000E+01 2.985791739145E-01 2.477955997687E-01 2.548592707133E-03 2.539966321256E-03 3.863552095196E-19 -2.095032347960E-04 9.614477428493E-01
 2.206465269781E+02 -1.150000000000E+01 3.383313425758E-01 2.532750051784E-01 2.510706931416E-03 2.502548321609E-03 1.531852186161E-20 -2.022291185296E-04 9.593327259919E-01
 2.201356801543E+02 -1.150000000000E+01 3.792022433785E-01 2.587985206860E-01 2.472373427983E-03 2.464683794090E-03 1.314178795042E-19 -1.948313156847E-04 9.571116528446E-01
 2.195992149110E+02 -1.150000000000E+01 4.211548424297E-01 2.643634440771E-01 2.433686241015E-03 2.426466199608E-03 1.360135700433E-19 -1.873104270826E-04 9.547791952651E-01
 2.190358432304E+02 -1.150000000000E+01 4.641398559845E-01 2.699663801593E-01 2.394669627339E-03 2.387919219333E-03 4.415075327141E-19 -1.796627375234E-04 9.523297531756E-01
 2.184442159048E+02 -1.150000000000E+01 5.080933481163E-01 2.756042985683E-01 2.355267994773E-03 2.348986624833E-03 2.563875353334E-19 -1.718807110056E-04 9.497574604556E-01
 2.178229103124E+02 -1.150000000000E+01 5.529339756827E-01 2.812731297460E-01 2.315395319842E-03 2.309581720886E-03 -2.063865457775E-19 -1.639544835450E-04 9.470561317932E-01
 2.171704360276E+02 -1.150000000000E+01 5.985609308555E-01 2.869687710626E-01 2.274404325259E-03 2.269057957244E-03 1.639732328392E-19 -1.558324842070E-04 9.442192870764E-01
 2.164852267588E+02 -1.150000000000E+01 6.448503027086E-01 2.926773341301E-01 2.230796406311E-03 2.225919576538E-03 6.291400454348E-19 -1.473997936755E-04 9.412401163427E-01
 2.157656373175E+02 -1.150000000000E+01 6.916480736904E-01 2.984047990424E-01 2.185183200934E-03 2.180771450562E-03 4.290106301781E-19 -1.387558765809E-04 9.381114665978E-01
 2.150099399747E+02 -1.150000000000E+01 7.387689447721E-01 3.041207736567E-01 2.142174589346E-03 2.138207741240E-03 -6.957951807339E-21 -1.302728373635E-04 9.348258259767E-01
 2.142446294407E+02 -1.150000000000E+01 7.843449413629E-01 3.096849057421E-01 2.103870450005E-03 2.100324124723E-03 3.064192495185E-19 -1.220672977564E-04 9.314983888727E-01
 2.134792028356E+02 -1.150000000000E+01 8.277337990565E-01 3.149979414522E-01 2.066915657306E-03 2.063768668300E-03 5.490460918561E-19 -1.139743781766E-04 9.281704471113E-01
 2.127136643096E+02 -1.150000000000E+01 8.688977320974E-01 3.200612805498E-01 2.029105493612E-03 2.026335751196E-03 3.277993941667E-19 -1.059410564403E-04 9.248420187372E-01
 2.119480181622E+02 -1.150000000000E+01 9.077954254557E-01 3.248920214624E-01 1.991295223454E-03 1.988878764301E-03 2.023882343355E-19 -9.802506444628E-05 9.215131224444E-01
 2.111822689397E+02 -1.150000000000E+01 9.443831107318E-01 3.295005300133E-01 1.954275400113E-03 1.952187676285E-03 1.997849829109E-20 -9.025845595774E-05 9.181837779989E-01
 2.104164215581E+02 -1.150000000000E+01 9.786164616283E-01 3.338930783573E-01 1.918131795681E-03 1.916348451201E-03 -1.133699936969E-19 -8.263869252530E-05 9.148540067743E-01
 2.096504811893E+02 -1.150000000000E+01 1.010447508536E+00 3.380758107213E-01 1.882843851579E-03 1.881340750197E-03 1.034309559184E-19 -7.515900899181E-05 9.115238312577E-01
 2.088844533906E+02 -1.150000000000E+01 1.039826639025E+00 3.420497255374E-01 1.848372025637E-03 1.847125227694E-03 2.827990848586E-19 -6.781169656545E-05 9.081932756113E-01
 2.081183441781E+02 -1.150000000000E+01 1.066703776643E+00 3.458166704041E-01 1.814616814777E-03 1.813602508048E-03 2.360888169246E-19 -6.058857608187E-05 9.048623659917E-01
 2.073521599647E+02 -1.150000000000E+01 1.091025940207E+00 3.493757049020E-01 1.781581489153E-03 1.780775855694E-03 6.636091263907E-20 -5.348605059236E-05 9.015311302814E-01
 2.065859076570E+02 -1.150000000000E+01 1.112738964733E+00 3.527263505477E-01 1.749393504144E-03 1.748772591704E-03 7.402153572932E-21 -4.650617633969E-05 8.981995985086E-01
 2.058195947202E+02 -1.150000000000E+01 1.131788991482E+00 3.558702416759E-01 1.718129373982E-03 1.717669080225E-03 -7.558939299636E-20 -3.965128625707E-05 8.948678031314E-01
 2.050532292368E+02 -1.150000000000E+01 1.148124873550E+00 3.588090589971E-01 1.687739163087E-03 1.687415327298E-03 -4.913612280423E-20 -3.292011970911E-05 8.915357792903E-01
 2.042868198552E+02 -1.150000000000E+01 1.161696815653E+00 3.615469891442E-01 1.658211460479E-03 1.657999883049E-03 3.073452907425E-20 -2.631317105098E-05 8.882035645879E-01
 2.035203757650E+02 -1.150000000000E+01 1.172455284866E+00 3.640884648505E-01 1.629619955449E-03 1.629496434465E-03 -3.853108578362E-20 -1.983285278531E-05 8.848711989783E-01
 2.027539067426E+02 -1.150000000000E+01 1.180355076716E+00 3.664353919030E-01 1.601905870255E-03 1.601846293416E-03 6.849139686263E-21 -1.347901282655E-05 8.815387249677E-01
 2.019874230943E+02 -1.150000000000E+01 1.185354551208E+00 3.685889034286E-01 1.574948813525E-03 1.574929224073E-03 2.489234549422E-20 -7.250805581627E-06 8.782061873666E-01
 2.012209355991E+02 -1.150000000000E+01 1.187412192422E+00 3.705487175291E-01 1.548797644031E-03 1.548794291793E-03 -3.837336409032E-20 -1.147537859970E-06 8.748736330395E-01
 2.004544555104E+02 -1.150000000000E+01 1.186488227202E+00 3.723176719429E-01 1.523431770212E-03 1.523421151484E-03 -6.259222438688E-20 4.832819088585E-06 8.715411109147E-01
 1.996879945315E+02 -1.150000000000E+01 1.182545917229E+00 3.738904181255E-01 1.498749771109E-03 1.498708653939E-03 -3.362352736350E-20 1.069235018427E-05 8.682086718759E-01
 1.989215647979E+02 -1.150000000000E+01 1.175548828730E+00 3.752669527566E-01 1.475009211899E-03 1.474914723197E-03 7.279581068241E-20 1.642964353031E-05 8.648763686865E-01
 1.981551788394E+02 -1.150000000000E+01 1.165463563932E+00 3.764484114864E-01 1.452484885981E-03 1.452314628993E-03 4.346166886722E-20 2.204320800108E-05 8.615442558236E-01
 1.973888493186E+02 -1.150000000000E+01 1.152272481988E+00 3.774320023553E-01 1.431022347619E-03 1.430754573190E-03 1.585539033140E-20 2.752870359648E-05 8.582123883419E-01
 1.966225890115E+02 -1.150000000000E+01 1.135963046328E+00 3.782258602168E-01 1.410426004653E-03 1.410039699327E-03 3.370278350790E-20 3.288257798376E-05 8.548808217889E-01
 1.958564108467E+02 -1.150000000000E+01 1.116522858330E+00 3.788288227581E-01 1.390813644272E-03 1.390288408478E-03 -7.797725888901E-20 3.811326323624E-05 8.515496123770E-01
 1.950903277940E+02 -1.150000000000E+01 1.093943360909E+00 3.792479764229E-01 1.372207122520E-03 1.371523174199E-03 -2.257260508056E-19 4.322778010020E-05 8.482188164958E-01
 1.943243527892E+02 -1.150000000000E+01 1.068220339937E+00 3.794826552674E-01 1.354424397408E-03 1.353562634626E-03 -2.315624442895E-20 4.822754869914E-05 8.448884903877E-01
 1.935584988168E+02 -1.150000000000E+01 1.039349816177E+00 3.795312369509E-01 1.337656918567E-03 1.336598831621E-03 2.640468561586E-19 5.312298831420E-05 8.415586905077E-01
 1.927927788035E+02 -1.150000000000E+01 1.007330448575E+00 3.793985227563E-01 1.322158648535E-03 1.320886315853E-03 -1.948961930004E-19 5.792667101679E-05 8.382294730586E-01
 1.920272050738E+02 -1.150000000000E+01 9.721744882608E-01 3.790868605510E-01 1.307724541178E-03 1.306221023763E-03 -5.538844313407E-19 6.263389948181E-05 8.349008916252E-01
 1.912617895947E+02 -1.150000000000E+01 9.338985484014E-01 3.786025535493E-01 1.294155102268E-03 1.292404524785E-03 -1.613751027669E-19 6.723909265286E-05 8.315729982377E-01
 1.904965441318E+02 -1.150000000000E+01 8.925193403380E-01 3.779453580564E-01 1.281709072335E-03 1.279696100831E-03 1.194598988238E-20 7.175932831116E-05 8.282458440512E-01
 1.897314798007E+02 -1.150000000000E+01 8.480613067945E-01 3.771236957412E-01 1.270467918419E-03 1.268178067826E-03 -2.706852630432E-19 7.620195440383E-05 8.249194773942E-01
 1.889666066383E+02 -1.150000000000E+01 8.005616975497E-01 3.761343593217E-01 1.260124227760E-03 1.257544484526E-03 -2.665694041710E-19 8.055318073021E-05 8.215939419055E-01
 1.882019341680E+02 -1.150000000000E+01 7.500589431597E-01 3.749758963812E-01 1.250684720264E-03 1.247802826693E-03 -1.502952503752E-19 8.482039455526E-05 8.182692789911E-01
 1.874374714520E+02 -1.150000000000E+01 6.965916973387E-01 3.736546807008E-01 1.242300713671E-03 1.239104588269E-03 -5.096657001155E-19 8.902383259748E-05 8.149455280522E-01
 1.866732268689E+02 -1.150000000000E+01 6.402018697093E-01 3.721688292498E-01 1.234981535103E-03 1.231459440361E-03 -4.706587517824E-19 9.317523972332E-05 8.116227255170E-01
 1.859092081498E+02 -1.150000000000E+01 5.809336267172E-01 3.705272285035E-01 1.228659939137E-03 1.224800659027E-03 -2.638365217515E-19 9.727998028453E-05 8.083009049992E-01
 1.851454215337E+02 -1.150000000000E+01 5.188310617023E-01 3.687341558794E-01 1.223423555764E-03 1.219216202814E-03 -9.003924676756E-20 1.013512564383E-04 8.049800936249E-01
 1.843818765326E+02 -1.150000000000E+01 4.539413518167E-01 3.667916737864E-01 1.219481142841E-03 1.214914960092E-03 6.822177012136E-19 1.054094769762E-04 8.016603327506E-01
 1.836185748698E+02 -1.150000000000E+01 3.863257145356E-01 3.647086784541E-01 1.216604906531E-03 1.211670931075E-03 9.213135187801E-19 1.094374538683E-04 7.983416298689E-01
 1.828555211804E+02 -1.150000000000E+01 3.160503881347E-01 3.624822472871E-01 1.214548771757E-03 1.209239814248E-03 7.679383099341E-20 1.134174911561E-04 7.950240051323E-01
 1.820927184189E+02 -1.150000000000E+01 2.431814682331E-01 3.601161067143E-01 1.213422138912E-03 1.207730931035E-03 -2.962106736469E-19 1.173679839961E-04 7.917074713865E-01
 1.813301688309E+02 -1.150000000000E+01 1.677854212366E-01 3.576165453582E-01 1.213264989865E-03 1.207184318343E-03 -1.484519547720E-19 1.213017972950E-04 7.883920383953E-01
 1.805678738894E+02 -1.150000000000E+01 8.992983659005E-02 3.549840983986E-01 1.214033420406E-03 1.207556461654E-03 -5.685372189708E-19 1.252234277630E-04 7.850777125624E-01
 1.798058343987E+02 -1.150000000000E+01 9.682441102778E-03 3.522230054140E-01 1.215732622999E-03 1.208852741253E-03 -2.586810629919E-19 1.291410951897E-04 7.817644973857E-01
 1.790440505311E+02 -1.150000000000E+01 -7.288907343964E-02 3.493372267568E-01 1.218407218818E-03 1.211117861310E-03 4.307705918945E-19 1.330655007783E-04 7.784523936133E-01
 1.782825215940E+02 -1.150000000000E+01 -1.577148287541E-01 3.463300784401E-01 1.222041418422E-03 1.214336545607E-03 -2.836976648237E-20 1.369996998420E-04 7.751413982346E-01
 1.775212458598E+02 -1.150000000000E+01 -2.447213152610E-01 3.432027591219E-01 1.226562773945E-03 1.218437225914E-03 -3.603681441593E-19 1.409399912506E-04 7.718315037381E-01
 1.767602209342E+02 -1.150000000000E+01 -3.338347486748E-01 3.399603601188E-01 1.231948800270E-03 1.223397910455E-03 1.696609435992E-19 1.448885395024E-04 7.685226997139E-01
 1.759994438150E+02 -1.150000000000E+01 -4.249813975522E-01 3.366065716627E-01 1.238209613432E-03 1.229228896455E-03 -4.343175773554E-20 1.488516831872E-04 7.652149731089E-01
 1.752389108411E+02 -1.150000000000E+01 -5.180870067463E-01 3.331454010086E-01 1.245348183612E-03 1.235933417551E-03 -1.100137937554E-18 1.528342366058E-04 7.619083080050E-01
 1.744786176981E+02 -1.150000000000E+01 -6.130767101321E-01 3.295829460164E-01 1.253322244325E-03 1.243469833738E-03 -3.198087320958E-19 1.568349275709E-04 7.586026856441E-01
 1.737185595134E+02 -1.150000000000E+01 -7.098756717547E-01 3.259242612518E-01 1.262056291824E-03 1.251763563227E-03 1.390061759598E-18 1.608477219342E-04 7.552980848410E-01
 1.729587308851E+02 -1.150000000000E+01 -8.084091216363E-01 3.221708945518E-01 1.271523109482E-03 1.260787984188E-03 9.955927188913E-19 1.648719086635E-04 7.519944821093E-01
 1.721991258935E+02 -1.150000000000E+01 -9.086022869722E-01 3.183267872659E-01 1.281745566365E-03 1.270566193027E-03 1.574726684753E-19 1.689125693566E-04 7.486918517110E-01
 1.714397381237E+02 -1.150000000000E+01 -1.010380394763E+00 3.143977433265E-01 1.292698366667E-03 1.281073557208E-03 3.952547629292E-19 1.729680729576E-04 7.453901657553E-01
 1.706805606938E+02 -1.150000000000E+01 -1.113668731432E+00 3.103835543080E-01 1.304320108760E-03 1.292249496900E-03 5.381512736005E-20 1.770329289348E-04 7.420893943210E-01
 1.699215863302E+02 -1.150000000000E+01 -1.218393005791E+00 3.062900504341E-01 1.316531105853E-03 1.304015036604E-03 -3.174456055902E-19 1.811008806752E-04 7.387895057835E-01
 1.691628079890E+02 -1.150000000000E+01 -1.324483628537E+00 3.021223659095E-01 1.329306137496E-03 1.316345125210E-03 -3.514309750055E-19 1.851729483084E-04 7.354904695174E-01
 1.684042187086E+02 -1.150000000000E+01 -1.431874289469E+00 2.978824560764E-01 1.342706449001E-03 1.329300473191E-03 -4.382072800025E-19 1.892608414447E-04 7.321922552549E-01
 1.676458111964E+02 -1.150000000000E+01 -1.540498791848E+00 2.935738978646E-01 1.356706548284E-03 1.342856134428E-03 -2.824194033463E-19 1.933622683482E-04 7.288948312886E-01
 1.668875778627E+02 -1.150000000000E+01 -1.650291149397E+00 2.891988520855E-01 1.371240604342E-03 1.356947341889E-03 -5.475185313236E-19 1.974682467081E-04 7.255981646203E-01
 1.661295110641E+02 -1.150000000000E+01 -1.761187128300E+00 2.847626058907E-01 1.386298721370E-03 1.371564657311E-03 -6.371509646368E-19 2.015778493287E-04 7.223022220178E-01
 1.653716030282E+02 -1.150000000000E+01 -1.873123555651E+00 2.802669493807E-01 1.401905281346E-03 1.386732674271E-03 6.916016753978E-20 2.056941660397E-04 7.190069696877E-01
 1.646138457243E+02 -1.150000000000E+01 -1.986037311320E+00 2.757163597050E-01 1.418010228146E-03 1.402402193332E-03 4.052628773658E-19 2.098102937222E-04 7.157123727141E-01
 1.638562309493E+02 -1.150000000000E+01 -2.099865778059E+00 2.711156805936E-01 1.434475970341E-03 1.418437246196E-03 -2.001525584608E-19 2.139075237579E-04 7.124183954319E-01
 1.630987509205E+02 -1.150000000000E+01 -2.214550642284E+00 2.664669149592E-01 1.451317419880E-03 1.434852673499E-03 -3.141194216450E-19 2.179896096226E-04 7.091250040021E-01
 1.623413980071E+02 -1.150000000000E+01 -2.330035916154E+00 2.617741248415E-01 1.468622730479E-03 1.451735828644E-03 -1.649883793987E-19 2.220704535013E-04 7.058321652485E-01
 1.615841635849E+02 -1.150000000000E+01 -2.446265788121E+00 2.570397209121E-01 1.486306942177E-03 1.469002935956E-03 2.463979914982E-19 2.261376573433E-04 7.025398416737E-01
 1.608270422362E+02 -1.150000000000E+01 -2.563184570988E+00 2.522666283984E-01 1.504232219417E-03 1.486517752803E-03 1.138086713831E-18 2.301719704339E-04 6.992480097225E-01
 1.600700242629E+02 -1.150000000000E+01 -2.680742422831E+00 2.474587515189E-01 1.522408951089E-03 1.504290423743E-03 6.287910215769E-19 2.341772431910E-04 6.959566272298E-01