TITLE = "005.01 ALPHA 3.60 GRIDLEVEL 6"

VARIABLES = "ITERATION"  "GRID_LEVEL"  "GRID_SIZE"  "CONTINUITY"  "MOMENTUMX"  "MOMENTUMY"  "MOMENTUMZ"  "ENERGY"  "TURB1"  "TURB2"  "CL_TOT"  "CD_TOT"  "CM_TOT"

DATASETAUXDATA ParticipantID   = "005"
DATASETAUXDATA SubmissionDate  = "10-31-2024"
DATASETAUXDATA Name            = "Jeffrey A. Housman"
DATASETAUXDATA Email           = "jeffrey.a.housman@nasa.gov"
DATASETAUXDATA Institution     = "NASA Ames Research Center"
DATASETAUXDATA SolverName      = "LAVA Curvilinear"
DATASETAUXDATA BasicAlgorithm  = "RANS"
DATASETAUXDATA TurbulenceModel = "SA-neg"
DATASETAUXDATA GridId          = "Multiblock"
DATASETAUXDATA Discretization  = "Finite difference"
DATASETAUXDATA Order           = "2"
DATASETAUXDATA DistanceCalc    = "Exact"
DATASETAUXDATA Notes           = " "

ZONE T = "005.01 - Alpha 3.60 - Grid Level 6"
AUXDATA Tstatic         = "271.0"
AUXDATA Deltat          = "-999"
AUXDATA GridFileName    = "ONERA-OAT15A_230mmChord_780mmSpan_upZ_2024_06_25-Structured_23mm_Level-6.x"
AUXDATA Misc            = " "
 0 6 1281933 6.3205280419303116e+05 2.2484065038310364e+06 1.0839261461237826e-13 6.5745447771930241e+05 6.8855939257737040e+05 3.9288665384372957e+06 -999 2.10165605e-02 1.053024968e+00 -1.35356684e-02
 1 6 1281933 9.5948315211246139e+05 1.6429066348775970e+06 9.0837382488807965e-14 4.8095039968663151e+05 9.3930538268526015e+05 2.5560350202317969e+06 -999 5.72194896e-02 9.461451835e-01 -2.77086297e-02
 2 6 1281933 1.1714014044120589e+06 1.3795448630489181e+06 7.8106230592633110e-14 5.2331027982892742e+05 1.1274631129344623e+06 1.6704457232839977e+06 -999 1.03171252e-01 8.816861974e-01 -4.54548841e-02
 3 6 1281933 1.3558330293434302e+06 1.2190918222589570e+06 6.8531067188952851e-14 6.2014467397145869e+05 1.3031089743532962e+06 1.0981175144897019e+06 -999 1.46009994e-01 8.379131046e-01 -6.23310722e-02
 4 6 1281933 1.5073126829861656e+06 1.1106219945431517e+06 6.1158704483696938e-14 7.3788320587988547e+05 1.4640520896779455e+06 7.1634042157477932e+05 -999 1.84029624e-01 8.068022587e-01 -7.58206643e-02
 5 6 1281933 1.6687340935910468e+06 1.1066197025143239e+06 5.5398355767516868e-14 8.6068335468171281e+05 1.6651309044120365e+06 4.6410543831340323e+05 -999 2.13558458e-01 7.821491576e-01 -8.63208485e-02
 6 6 1281933 1.5102244336648805e+06 1.1077304384668183e+06 5.0965816649480138e-14 8.9095951837210020e+05 1.5101623150807482e+06 2.7854913245509524e+05 -999 2.34106166e-01 7.528965436e-01 -9.42521634e-02
 7 6 1281933 1.5358594218587955e+06 1.1004804354965938e+06 4.6834423063912065e-14 9.2325072842794063e+05 1.5358439038527748e+06 1.5920368911081349e+05 -999 2.51427585e-01 7.215068529e-01 -1.01382893e-01
 8 6 1281933 1.6187829744317839e+06 1.0528416923398131e+06 4.3785653945991839e-14 9.5060063576222595e+05 1.6359220215914147e+06 1.2486253641402833e+05 -999 2.64166680e-01 6.928351536e-01 -1.06454547e-01
 9 6 1281933 1.8474232382454230e+06 1.0981030431921962e+06 4.1501721820907628e-14 1.0059121293088659e+06 1.9332060208419554e+06 1.0696672029596759e+05 -999 2.73992448e-01 6.670165917e-01 -1.10134861e-01
 10 6 1281933 1.8715959556064308e+06 1.0308854369471758e+06 3.9846614148772174e-14 1.0243104868497631e+06 1.9454132567006533e+06 9.5199843672771298e+04 -999 2.81045902e-01 6.465761586e-01 -1.12742760e-01
 11 6 1281933 1.7390891805817387e+06 1.0448978632776001e+06 3.8335692762100519e-14 9.9330017958822439e+05 1.8096458670701229e+06 8.6875107679746070e+04 -999 2.86853729e-01 6.286162972e-01 -1.14935646e-01
 12 6 1281933 1.6079800965688827e+06 9.3848645254314155e+05 3.6648915587403526e-14 9.6467696898089652e+05 1.6311329805415876e+06 8.0178554631935840e+04 -999 2.93050355e-01 6.083369390e-01 -1.17146897e-01
 13 6 1281933 1.6438222502167085e+06 9.8469471406287502e+05 3.5335915346496349e-14 9.7184401817249355e+05 1.6811755576346067e+06 7.4649636456840017e+04 -999 2.97743801e-01 5.917337476e-01 -1.18785843e-01
 14 6 1281933 1.9034985442359881e+06 1.0854367301675356e+06 3.4197403240339471e-14 1.0358804957670951e+06 2.0124406641694433e+06 6.9946549219899811e+04 -999 3.01828702e-01 5.760979293e-01 -1.20287246e-01
 15 6 1281933 1.7611769772922897e+06 8.7770607903471938e+05 3.3501483007685588e-14 9.7123418296360807e+05 1.8301262017206224e+06 6.5768667516534930e+04 -999 3.03938311e-01 5.671829836e-01 -1.21123958e-01
 16 6 1281933 1.6318244353855792e+06 8.9262296562534431e+05 3.2589236320111666e-14 9.4920505448721314e+05 1.6797083818672921e+06 6.2025695343504667e+04 -999 3.06170217e-01 5.568069955e-01 -1.22005566e-01
 17 6 1281933 1.5136520157852150e+06 8.7396677557292511e+05 3.1674761973017063e-14 9.1321472820112424e+05 1.5359222977535492e+06 5.8757828964961074e+04 -999 3.08124625e-01 5.468103193e-01 -1.22710607e-01
 18 6 1281933 1.6583059865830105e+06 9.2931439854931668e+05 3.0798977886874222e-14 9.4195391101007792e+05 1.7154998224609664e+06 5.5922813690419032e+04 -999 3.09990856e-01 5.362055100e-01 -1.23297229e-01
 19 6 1281933 1.6273712531052690e+06 8.1549364162802289e+05 3.0216622538362642e-14 9.2638819272128167e+05 1.6681996585632393e+06 5.3344395526477194e+04 -999 3.11153759e-01 5.288857304e-01 -1.23599702e-01
 20 6 1281933 1.7929542908913516e+06 9.3718012312487827e+05 2.9717244626629889e-14 9.3754302175608894e+05 1.8981236655554932e+06 5.1006853447337904e+04 -999 3.12215522e-01 5.217736880e-01 -1.23853954e-01
 21 6 1281933 1.5202829795451867e+06 8.1279920289704297e+05 2.9109056030963839e-14 8.7788852255348512e+05 1.5823096984082239e+06 4.8184817508731976e+04 -999 3.13136956e-01 5.144381531e-01 -1.24059144e-01
 22 6 1281933 1.4167136805045560e+06 8.0611817727993825e+05 2.8551934505064346e-14 8.4738823580137629e+05 1.4399633641170757e+06 4.5720889587312835e+04 -999 3.13993241e-01 5.070289370e-01 -1.24249892e-01
 23 6 1281933 1.4815730912289042e+06 7.7776035372314276e+05 2.8087788452877006e-14 8.5239360743207415e+05 1.5136216447269553e+06 4.3550924125290439e+04 -999 3.14790251e-01 4.995112319e-01 -1.24435768e-01
 24 6 1281933 1.5200711049278430e+06 7.6029506289563177e+05 2.7753184878357840e-14 8.3840412129906472e+05 1.5779042756618802e+06 4.1624204196028142e+04 -999 3.15332137e-01 4.939022877e-01 -1.24568757e-01
 25 6 1281933 1.7445992685410096e+06 9.7929290286046383e+05 2.7476016697701844e-14 8.9156370980481291e+05 1.8759919488512469e+06 3.9914280860243445e+04 -999 3.15886935e-01 4.878233333e-01 -1.24709213e-01
 26 6 1281933 1.4660436000936839e+06 8.3637767596497608e+05 2.7030616123472221e-14 8.1297462229152350e+05 1.5608581210100462e+06 3.7819969736965948e+04 -999 3.16272016e-01 4.828295289e-01 -1.24801954e-01
 27 6 1281933 1.2996355542914285e+06 7.2486242243429273e+05 2.6597460350169220e-14 7.6699525825881434e+05 1.3338604132418768e+06 3.5922837548572970e+04 -999 3.16699058e-01 4.771971319e-01 -1.24904831e-01
 28 6 1281933 1.3130718860477800e+06 7.0493147851620929e+05 2.6249296040693001e-14 7.5520512824948563e+05 1.3393838568202560e+06 3.4239708162420669e+04 -999 3.17118450e-01 4.715667317e-01 -1.25003330e-01
 29 6 1281933 1.3984569815735538e+06 7.1684394172553369e+05 2.6039483093959377e-14 7.5227776143841888e+05 1.4647574046947442e+06 3.2742694466398494e+04 -999 3.17453010e-01 4.670361842e-01 -1.25079775e-01
 30 6 1281933 1.5989229074700065e+06 9.0554221792546706e+05 2.5868856253851153e-14 7.9367138928170002e+05 1.7283179051669773e+06 3.1408350492107173e+04 -999 3.17793434e-01 4.624105415e-01 -1.25157025e-01
 31 6 1281933 1.3356425505355897e+06 7.6996662349918589e+05 2.5491567679396016e-14 7.2324129146512586e+05 1.4344629297497547e+06 2.9816667678381993e+04 -999 3.18047733e-01 4.584436091e-01 -1.25210491e-01
 32 6 1281933 1.1559253253438349e+06 6.5208467042442271e+05 2.5087598570721892e-14 6.7377068631346303e+05 1.1965276328920671e+06 2.8379195436557155e+04 -999 3.18331371e-01 4.539965215e-01 -1.25271789e-01
 33 6 1281933 1.1660898697134047e+06 6.3586875538314250e+05 2.4734646978252555e-14 6.5779787025346502e+05 1.1941959226082691e+06 2.7061081334861083e+04 -999 3.18636488e-01 4.491835721e-01 -1.25340182e-01
 34 6 1281933 1.2431773757528355e+06 6.2327664089680288e+05 2.4534080556212289e-14 6.5907646719950193e+05 1.2960799342125803e+06 2.5878515487488174e+04 -999 3.18880757e-01 4.453032187e-01 -1.25397205e-01
 35 6 1281933 1.3507112849141592e+06 7.1462443852292618e+05 2.4439539903739584e-14 6.6666478592044313e+05 1.4506212349920503e+06 2.4815805093910632e+04 -999 3.19086240e-01 4.420169782e-01 -1.25446656e-01
 36 6 1281933 1.1510775653274329e+06 6.1709187288668670e+05 2.4177134716412834e-14 6.1810706709631765e+05 1.2296148373974650e+06 2.3519435846036773e+04 -999 3.19271279e-01 4.386704299e-01 -1.25489044e-01
 37 6 1281933 9.9219845363001002e+05 5.6260500824611331e+05 2.3897480249033906e-14 5.7354043731485016e+05 1.0271782399213689e+06 2.2356037300802473e+04 -999 3.19492519e-01 4.347205513e-01 -1.25541199e-01
 38 6 1281933 9.8163347791220271e+05 5.4076182546746952e+05 2.3717141059365332e-14 5.5236794803852960e+05 1.0009177768831236e+06 2.1311587819798253e+04 -999 3.19720129e-01 4.307166741e-01 -1.25596335e-01
 39 6 1281933 1.0826524541894479e+06 5.7080825499803736e+05 2.3672013689097711e-14 5.5441861791649670e+05 1.1353910592947984e+06 2.0363348364173173e+04 -999 3.19916600e-01 4.273134787e-01 -1.25644903e-01
 40 6 1281933 1.2258575057537293e+06 6.8144987451452052e+05 2.3729376519033294e-14 5.7547514841772628e+05 1.3235410291320405e+06 1.9499864949080220e+04 -999 3.20097693e-01 4.242148276e-01 -1.25690217e-01
 41 6 1281933 1.0252565576290220e+06 5.7586910883092217e+05 2.3463237789570359e-14 5.2588034454172489e+05 1.1080856601112692e+06 1.8494336174488715e+04 -999 3.20246964e-01 4.214032616e-01 -1.25725007e-01
 42 6 1281933 8.5735010371030320e+05 4.8727866348853137e+05 2.3150404301464748e-14 4.8321127651691582e+05 8.9583742174557294e+05 1.7587647030574968e+04 -999 3.20425482e-01 4.181245399e-01 -1.25767260e-01
 43 6 1281933 8.2941153599621041e+05 4.6253794665199809e+05 2.2876451510720576e-14 4.6062011682437343e+05 8.4256143479401222e+05 1.6773244801158660e+04 -999 3.20624318e-01 4.145692109e-01 -1.25815030e-01
 44 6 1281933 9.1019288325433480e+05 4.7912635065820056e+05 2.2757268110558416e-14 4.5991991009935550e+05 9.4793608106628910e+05 1.6039781247619783e+04 -999 3.20796840e-01 4.115619756e-01 -1.25857045e-01
 45 6 1281933 1.0112863323984070e+06 5.5519448300183879e+05 2.2726826355254470e-14 4.6884044892889238e+05 1.0878755082062194e+06 1.5369614985063479e+04 -999 3.20942762e-01 4.090638013e-01 -1.25892962e-01
 46 6 1281933 8.5984184969400184e+05 4.6682366511706146e+05 2.2506799603816230e-14 4.3225294012187218e+05 9.2709300427962909e+05 1.4526859993818003e+04 -999 3.21073085e-01 4.066416663e-01 -1.25922987e-01
 47 6 1281933 7.1542213334012742e+05 4.0816488257168140e+05 2.2235312547230891e-14 3.9623031030966726e+05 7.5091768241863814e+05 1.3764797700657249e+04 -999 3.21233067e-01 4.037419187e-01 -1.25960549e-01
 48 6 1281933 6.7334957565303170e+05 3.7559691635690327e+05 2.1999666422576077e-14 3.7266187876165513e+05 6.8165921721128153e+05 1.3083179763794413e+04 -999 3.21409580e-01 4.006268688e-01 -1.26002827e-01
 49 6 1281933 7.3270370984682557e+05 3.8743458812378690e+05 2.1887972386580032e-14 3.6806120733367256e+05 7.5491814773269428e+05 1.2471184708589342e+04 -999 3.21572221e-01 3.978268498e-01 -1.26042524e-01
 50 6 1281933 8.1547968352446146e+05 4.4187771141173033e+05 2.1896768551849478e-14 3.7306152501830156e+05 8.6829480010690191e+05 1.1916315711805715e+04 -999 3.21712047e-01 3.954637262e-01 -1.26077215e-01
 51 6 1281933 6.9530672695187945e+05 3.7393821905452589e+05 2.1708033397250328e-14 3.4385338034509571e+05 7.4615470362545166e+05 1.1212350555097086e+04 -999 3.21836121e-01 3.932149014e-01 -1.26106410e-01
 52 6 1281933 5.7665522380496445e+05 3.2640946345992456e+05 2.1478951395535375e-14 3.1451742484249384e+05 6.0735050180983427e+05 1.0579217891175869e+04 -999 3.21984531e-01 3.905909941e-01 -1.26141993e-01
 53 6 1281933 5.3197189325791236e+05 2.9980139902934496e+05 2.1273437931843705e-14 2.9301662059129903e+05 5.3961871348794433e+05 1.0008566306019413e+04 -999 3.22152816e-01 3.876931887e-01 -1.26183129e-01
 54 6 1281933 5.7133672336348007e+05 3.0259564912335161e+05 2.1180831374543581e-14 2.8595142979988392e+05 5.8511667990499723e+05 9.4952185603173875e+03 -999 3.22314301e-01 3.849839284e-01 -1.26223387e-01
 55 6 1281933 6.3095549424737762e+05 3.3871789619419439e+05 2.1205049554200197e-14 2.8712057760846429e+05 6.6679189644060715e+05 9.0396226689560372e+03 -999 3.22457155e-01 3.826368356e-01 -1.26259710e-01
 56 6 1281933 5.4217378239298845e+05 2.9173251314334275e+05 2.1017378707890051e-14 2.6552050577818911e+05 5.7942131104643201e+05 8.4633506579998611e+03 -999 3.22578534e-01 3.805342659e-01 -1.26289513e-01
 57 6 1281933 4.4752621546276897e+05 2.5408041806091086e+05 2.0775631282625949e-14 2.4071228323824835e+05 4.7327006378801860e+05 7.9408621116597615e+03 -999 3.22730234e-01 3.780052524e-01 -1.26327220e-01
 58 6 1281933 4.0463727141530399e+05 2.3055327351792733e+05 2.0556843789796396e-14 2.2085814232610262e+05 4.1324300125545746e+05 7.4674479472262519e+03 -999 3.22903195e-01 3.751935906e-01 -1.26371190e-01
 59 6 1281933 4.2266266642219009e+05 2.2821456094349851e+05 2.0454786079913762e-14 2.1151762368870448e+05 4.3154176739004767e+05 7.0529171885962833e+03 -999 3.23070628e-01 3.725374589e-01 -1.26414889e-01
 60 6 1281933 4.5379282628780795e+05 2.4079480104990915e+05 2.0477763353907971e-14 2.0819693786274473e+05 4.7366224761457357e+05 6.6890917081574553e+03 -999 3.23220845e-01 3.701978227e-01 -1.26455295e-01
 61 6 1281933 3.9245995817281539e+05 2.1370741881793490e+05 2.0294416337904241e-14 1.9224517757770582e+05 4.1590410285658995e+05 6.1881453328085936e+03 -999 3.23349022e-01 3.681246301e-01 -1.26489338e-01
 62 6 1281933 3.2508252199745394e+05 1.8906111029900963e+05 2.0061711618339605e-14 1.7447279392964512e+05 3.4387882269113965e+05 5.7607530454824528e+03 -999 3.23504146e-01 3.656600933e-01 -1.26531230e-01
 63 6 1281933 2.8855307149720041e+05 1.7090801694873939e+05 1.9819965915932744e-14 1.5863139239788725e+05 2.9688777424450399e+05 5.3768201870672456e+03 -999 3.23684831e-01 3.628414147e-01 -1.26581029e-01
 64 6 1281933 2.9241972558567009e+05 1.6549906962984405e+05 1.9691386389104337e-14 1.4947055571386663e+05 2.9886958075702237e+05 5.0403835217926153e+03 -999 3.23860390e-01 3.601460602e-01 -1.26630789e-01
 65 6 1281933 3.0454689572338777e+05 1.6736423149810184e+05 1.9683207852916879e-14 1.4431202887079320e+05 3.1548063941911288e+05 4.7483121041304503e+03 -999 3.24017923e-01 3.577483469e-01 -1.26677124e-01
 66 6 1281933 2.6474502787411830e+05 1.5189093407041696e+05 1.9510080119773192e-14 1.3362037463173131e+05 2.7854679923108849e+05 4.3459461389818343e+03 -999 3.24147736e-01 3.556752731e-01 -1.26714342e-01
 67 6 1281933 2.1932563787914178e+05 1.3692564775223337e+05 1.9284061270274719e-14 1.2129989808506350e+05 2.3144519477532269e+05 4.0065883790169382e+03 -999 3.24305049e-01 3.531876072e-01 -1.26759868e-01
 68 6 1281933 1.9063250162571546e+05 1.2477765847158496e+05 1.9037549535569394e-14 1.0943537953005228e+05 1.9706114910050645e+05 3.7232945911457955e+03 -999 3.24489569e-01 3.502950933e-01 -1.26814118e-01
 69 6 1281933 1.8645907308458458e+05 1.1892087770905274e+05 1.8899079141919613e-14 1.0141579455370879e+05 1.9105237709594579e+05 3.4512164853305062e+03 -999 3.24668815e-01 3.474991550e-01 -1.26868445e-01
 70 6 1281933 1.8741100571375247e+05 1.1603614378191651e+05 1.8884960752279823e-14 9.5922378945658784e+04 1.9319023388738587e+05 3.2273587019442521e+03 -999 3.24829615e-01 3.449855616e-01 -1.26919616e-01
 71 6 1281933 1.6356134963794652e+05 1.0746311699589581e+05 1.8715141089199669e-14 8.9097320940044243e+04 1.7106704374551473e+05 2.9416380327145716e+03 -999 3.24956127e-01 3.428764030e-01 -1.26957588e-01
 72 6 1281933 1.3550712564913274e+05 9.8673684459308148e+04 1.8484793567561739e-14 8.1016193732434942e+04 1.4243025832981089e+05 2.6923356992866261e+03 -999 3.25109864e-01 3.403253612e-01 -1.27004014e-01
 73 6 1281933 1.1502857723483097e+05 9.0738704355680646e+04 1.8222257162559801e-14 7.2616049326280365e+04 1.1912067085955928e+05 2.4764173049150004e+03 -999 3.25291988e-01 3.373108090e-01 -1.27059964e-01
 74 6 1281933 1.0769744178631970e+05 8.5533316594502379e+04 1.8054430943759449e-14 6.6127587522034373e+04 1.1049256859447905e+05 2.2939503610129809e+03 -999 3.25468963e-01 3.343735118e-01 -1.27116634e-01
 75 6 1281933 1.0361396277541714e+05 8.1682999408095973e+04 1.7992012493438626e-14 6.1149411286363429e+04 1.0633622045030120e+05 2.1390646008557196e+03 -999 3.25627396e-01 3.317169593e-01 -1.27171031e-01
 76 6 1281933 9.0613790386172506e+04 7.6710775578699540e+04 1.7823356680860226e-14 5.5809146533723324e+04 9.4057070158742004e+04 1.9299526008962209e+03 -999 3.25747328e-01 3.294704544e-01 -1.27206895e-01
 77 6 1281933 7.5044064323110433e+04 7.1305985984678395e+04 1.7608763695691496e-14 4.9603855244333557e+04 7.8198452290176705e+04 1.7580152296254691e+03 -999 3.25893510e-01 3.267186491e-01 -1.27250604e-01
 78 6 1281933 6.2172367850326649e+04 6.5893550698742329e+04 1.7320490491961929e-14 4.3009038237608052e+04 6.4033646649761511e+04 1.6201160574548730e+03 -999 3.26067949e-01 3.233997602e-01 -1.27303638e-01
 79 6 1281933 5.5323552345192249e+04 6.1660780698358743e+04 1.7102231521136496e-14 3.7685622938672699e+04 5.6446926669275250e+04 1.5108892450170943e+03 -999 3.26236522e-01 3.201200935e-01 -1.27357757e-01
 80 6 1281933 5.0553154735884360e+04 5.8263243243011057e+04 1.6973837593961585e-14 3.3610901392465777e+04 5.1360819346773889e+04 1.4232120936370409e+03 -999 3.26386199e-01 3.171030023e-01 -1.27410696e-01
 81 6 1281933 4.3944083338488555e+04 5.4965539517864447e+04 9.5124530756310038e-14 3.0477040736887415e+04 4.4962633370876662e+04 1.2960408367635755e+03 -999 3.26484222e-01 3.143505837e-01 -1.27430741e-01
 82 6 1281933 3.6179202922119330e+04 5.1279939923034122e+04 1.8065543461868148e-13 2.6903516263762558e+04 3.7082245693305878e+04 1.2239496125684395e+03 -999 3.26599355e-01 3.108809051e-01 -1.27450517e-01
 83 6 1281933 2.9466261119619867e+04 4.7468680532475162e+04 2.4816068118278371e-13 2.3222723705597018e+04 3.0010662201975356e+04 1.2278919738319792e+03 -999 3.26729044e-01 3.065642228e-01 -1.27467880e-01
 84 6 1281933 2.5571131178379237e+04 4.4418028356668015e+04 2.8407900887311954e-13 2.0476252536910266e+04 2.6016766990137377e+04 1.3072141472026115e+03 -999 3.26842732e-01 3.021913857e-01 -1.27479097e-01
 85 6 1281933 2.3211827974197266e+04 4.2075404111214033e+04 2.9982482189745306e-13 1.8646611077120870e+04 2.3743293424534593e+04 1.4913833008091715e+03 -999 3.26933896e-01 2.980185746e-01 -1.27486672e-01
 86 6 1281933 2.0382294364463436e+04 3.9556147296312054e+04 2.6408015518600224e-13 1.6967885808763323e+04 2.1221798699689894e+04 1.9344857987361597e+03 -999 3.26981450e-01 2.933765985e-01 -1.27415951e-01
 87 6 1281933 1.7704422903440543e+04 3.6764357392529193e+04 2.3147383575426123e-13 1.5324765671954669e+04 1.8919405148228339e+04 2.6586116341171073e+03 -999 3.27076808e-01 2.872209763e-01 -1.27316212e-01
 88 6 1281933 1.6348774068480592e+04 3.4182950938607755e+04 2.1160620313259969e-13 1.4094032882391539e+04 1.8052171362900037e+04 3.8212608925325635e+03 -999 3.27279536e-01 2.793410204e-01 -1.27193372e-01
 89 6 1281933 1.6270972840817236e+04 3.2566993928194148e+04 2.2105753503409254e-13 1.3545836518788186e+04 1.8404246568758277e+04 7.4156967993751614e+03 -999 3.27572959e-01 2.711946152e-01 -1.27106004e-01
 90 6 1281933 1.6650660459158356e+04 3.1838306185355927e+04 2.3848874816251951e-13 1.3504402815153222e+04 1.9099906560853698e+04 1.9897622036528701e+04 -999 3.27927807e-01 2.630378842e-01 -1.27098599e-01
 91 6 1281933 1.5917092552202012e+04 2.9209063397940852e+04 2.2845612557183111e-13 1.2831375355904220e+04 1.8483744838771956e+04 8.6893731289810414e+04 -999 3.28503314e-01 2.510858466e-01 -1.27281491e-01
 92 6 1281933 1.6363445069417630e+04 2.7752428001642325e+04 2.4906055466814412e-13 1.2596580738301600e+04 1.8930746085231909e+04 2.2310015051141335e+05 -999 3.29215025e-01 2.336990794e-01 -1.27855603e-01
 93 6 1281933 1.7500986572650694e+04 3.6942961988738090e+04 3.8848609592775073e-13 1.2921562886938977e+04 2.1821298940758337e+04 4.1482278934107133e+05 -999 3.29520501e-01 2.122110035e-01 -1.29125059e-01
 94 6 1281933 1.7321131821308580e+04 3.8578071728447634e+04 4.2645959259371086e-13 1.2867588111046134e+04 2.4230712722799839e+04 1.5057530576660013e+05 -999 3.29296462e-01 2.073673106e-01 -1.29526823e-01
 95 6 1281933 1.7285263607050860e+04 4.4381447381221842e+04 4.5584325686514698e-13 1.3619484621031059e+04 2.9283779142014457e+04 6.3349260598124587e+05 -999 3.29061068e-01 2.038662654e-01 -1.29819937e-01
 96 6 1281933 1.6532336292713218e+04 2.1771420170773064e+04 3.7002978102445163e-13 1.2167828942742164e+04 1.8157119157741876e+04 8.6771512364725955e+05 -999 3.27979344e-01 1.809770664e-01 -1.31697674e-01
 97 6 1281933 1.5887642563729476e+04 2.3073449739967127e+04 3.0782185482429778e-13 1.1197806000218989e+04 1.6983898536349916e+04 5.1997854263129336e+05 -999 3.25120234e-01 1.605573255e-01 -1.33317960e-01
 98 6 1281933 1.5572790400332522e+04 4.9496171791358429e+04 2.5821114263846587e-13 1.1242597798608454e+04 1.9381092940049195e+04 1.3026109121167487e+06 -999 3.21965869e-01 1.492450365e-01 -1.33781145e-01
 99 6 1281933 1.5351254414150331e+04 6.0603190132092190e+04 2.4809272907879066e-13 1.0984702305668237e+04 2.0931036149169231e+04 4.1701151020667527e+05 -999 3.21159976e-01 1.472816035e-01 -1.33771020e-01
 100 6 1281933 1.5219034030983057e+04 6.7088799097518786e+04 2.4307187169359613e-13 1.0648944603735459e+04 2.0192186863571667e+04 3.7506559744882671e+05 -999 3.20746963e-01 1.463434400e-01 -1.33757904e-01
 101 6 1281933 1.4304228879172808e+04 2.4032929253964896e+04 4.0412616534679703e-13 1.0013773796926404e+04 1.4993334592815769e+04 1.5754941613446313e+05 -999 3.15099411e-01 1.323575319e-01 -1.33611193e-01
 102 6 1281933 1.3109376003271838e+04 2.2221801061541071e+04 5.4430653157670761e-13 8.9034292671399107e+03 1.3707525159628949e+04 9.4545239018637061e+04 -999 3.10149464e-01 1.239471962e-01 -1.32808989e-01
 103 6 1281933 1.2498287908283990e+04 2.0643346356584952e+04 6.1176043504938541e-13 8.2168703644553552e+03 1.2936552902383775e+04 7.1634914212956734e+04 -999 3.06952244e-01 1.188709152e-01 -1.31970048e-01
 104 6 1281933 1.2286543824349063e+04 1.9644541793854576e+04 6.3681139600797506e-13 7.8059292765047430e+03 1.2595262308911764e+04 5.5801326394240583e+04 -999 3.05281679e-01 1.160175062e-01 -1.31394433e-01
 105 6 1281933 1.2170370816404891e+04 1.9117611205203324e+04 6.4853435725104248e-13 7.5009897888020896e+03 1.2516509740896841e+04 4.5498834854445951e+04 -999 3.04305307e-01 1.140960285e-01 -1.30988141e-01
 106 6 1281933 1.0695306040083957e+04 1.6405772925993377e+04 8.3231800827108687e-13 6.3684768288904415e+03 1.0796122785247457e+04 3.9611202497479106e+04 -999 3.06197276e-01 1.090567681e-01 -1.30616872e-01
 107 6 1281933 9.4067932439655378e+03 1.3481005919896543e+04 1.3271175132008347e-12 5.5930591281605066e+03 9.1727613852250724e+03 3.9841232523330036e+04 -999 3.12868106e-01 1.023893501e-01 -1.31337670e-01
 108 6 1281933 9.2015434323119571e+03 1.2887335392736322e+04 1.5592108711112556e-12 5.5630420592567052e+03 8.8325959073485974e+03 9.2477616303509581e+04 -999 3.25417535e-01 9.690390080e-02 -1.34037470e-01
 109 6 1281933 9.1071532015705798e+03 1.2698243475312685e+04 1.5714931776598811e-12 5.4445505649488096e+03 8.7886551574597288e+03 7.9211567492525239e+04 -999 3.33334938e-01 9.500131098e-02 -1.36121397e-01
 110 6 1281933 8.8152204267661327e+03 1.2811298493918717e+04 1.5677165088183812e-12 5.3525621822569710e+03 8.5741311386730849e+03 1.1415153129822765e+05 -999 3.41626505e-01 9.336179544e-02 -1.38409451e-01
 111 6 1281933 6.7404609986561345e+03 9.3332714664643154e+03 1.0622607969365955e-11 4.1366160824196841e+03 6.3258389700637936e+03 1.7078300435075132e+05 -999 3.69021672e-01 8.943991996e-02 -1.46202257e-01
 112 6 1281933 5.5516057972952640e+03 7.3358164948386921e+03 1.3086413195949740e-11 3.2206699395279147e+03 5.2759784603340931e+03 1.4809770467318463e+05 -999 4.07133665e-01 8.539073293e-02 -1.57379215e-01
 113 6 1281933 4.7862990773224337e+03 6.3700749072480057e+03 2.3761822901164156e-11 2.5052772926364764e+03 4.8049404079159340e+03 1.2937496669082565e+05 -999 4.62410430e-01 8.097990062e-02 -1.73456525e-01
 114 6 1281933 4.3021567725094901e+03 5.8001494237167326e+03 5.3018563018248062e-11 2.1144976781159603e+03 4.6463984166583832e+03 1.7347786139980779e+05 -999 5.08991836e-01 7.798178674e-02 -1.85715202e-01
 115 6 1281933 4.2507659811489093e+03 5.7339664476018388e+03 4.3080823620133924e-11 1.8635846289059803e+03 5.1338828935372085e+03 1.0243591602816648e+05 -999 5.60734209e-01 7.487636671e-02 -1.97241611e-01
 116 6 1281933 3.1474206311267731e+03 4.0713566730393550e+03 2.3537675310399938e-11 1.1535594688752196e+03 3.2024203580336680e+03 2.0237319065613477e+05 -999 6.23550152e-01 7.264845282e-02 -2.04893025e-01
 117 6 1281933 2.7707521966405884e+03 3.2906205157305749e+03 2.0585450996421808e-11 8.5104684627554889e+02 2.6679127208225991e+03 7.1150029613950406e+04 -999 6.73800559e-01 7.192787491e-02 -2.08252654e-01
 118 6 1281933 2.6102423069990186e+03 3.0919070226303361e+03 1.9479860645227593e-11 7.5228125330450428e+02 2.4846807264236199e+03 1.0803904672965541e+05 -999 7.03943078e-01 7.190360318e-02 -2.08886774e-01
 119 6 1281933 2.5305996621703766e+03 3.0047088907392322e+03 2.3423208511948471e-11 7.1340252825962955e+02 2.3957802122986554e+03 4.5149213691462530e+04 -999 7.21939178e-01 7.197735989e-02 -2.08841088e-01
 120 6 1281933 2.4926038645628128e+03 3.0037624856281900e+03 4.4003688366334227e-11 7.1930422656039207e+02 2.3514874215722930e+03 2.4006369029576334e+04 -999 7.34648965e-01 7.205907021e-02 -2.08620760e-01
 121 6 1281933 2.3668386926854528e+03 2.9754848174856925e+03 5.2557747296506596e-11 7.0205268890735601e+02 2.2202005146071360e+03 1.5734122158539885e+04 -999 7.66886463e-01 7.311808105e-02 -2.08733364e-01
 122 6 1281933 2.2973964906339811e+03 2.8580027470446507e+03 3.9200123629940175e-11 7.0280220760048371e+02 2.1410546220761757e+03 1.1283486828228450e+04 -999 7.96435483e-01 7.399009362e-02 -2.08201948e-01
 123 6 1281933 2.2673659015512326e+03 2.6822877472417117e+03 2.3292390777841006e-11 7.0005869963918542e+02 2.0934805366773353e+03 8.7337064146336652e+03 -999 8.25739230e-01 7.470319541e-02 -2.07041885e-01
 124 6 1281933 2.2599753690921102e+03 2.6272740792800432e+03 1.8977836451126864e-11 7.0034468701208448e+02 2.0764204298914256e+03 7.7510455106694408e+03 -999 8.41686839e-01 7.498660187e-02 -2.06074756e-01
 125 6 1281933 2.2451516655069963e+03 2.6096117344687968e+03 1.6908108003599592e-11 7.0211369269929423e+02 2.0575534191202669e+03 7.7456150759136162e+03 -999 8.54542650e-01 7.516063596e-02 -2.05165213e-01
 126 6 1281933 2.2451516655069968e+03 2.7414150838201735e+03 1.8865823513925703e-11 7.6779181598527884e+02 2.0618584436268670e+03 8.6892266459091588e+03 -999 8.54542650e-01 7.516063596e-02 -2.05165213e-01
 127 6 1281933 2.3507330257292433e+03 2.9445798959739209e+03 1.9355287784259401e-11 7.7558264524651486e+02 2.1682563016111158e+03 8.6576617009336242e+03 -999 8.66891774e-01 7.562761723e-02 -2.04806064e-01
 128 6 1281933 2.2123376277571797e+03 2.6456246680728486e+03 1.4260731599330756e-11 6.5966219526280338e+02 2.0300485357070443e+03 8.8658271192585289e+03 -999 8.69629539e-01 7.568635055e-02 -2.04806568e-01
 129 6 1281933 2.1562840012938927e+03 2.4736596425705470e+03 9.5485047126118546e-12 5.8408256471344691e+02 1.9708212786352431e+03 9.0590120745293571e+03 -999 8.73008425e-01 7.576707966e-02 -2.04817905e-01
 130 6 1281933 2.1299579473802519e+03 2.3699314337700225e+03 5.9008147701368619e-12 5.5274192333519250e+02 1.9422590420158278e+03 9.2483484595670598e+03 -999 8.77078838e-01 7.587417850e-02 -2.04842727e-01
 131 6 1281933 2.1136507522451911e+03 2.3228804394180966e+03 4.8671672820186863e-12 5.4971683408422552e+02 1.9244462685550018e+03 9.3191561792214998e+03 -999 8.79456794e-01 7.594075040e-02 -2.04859817e-01
 132 6 1281933 2.0975082782363324e+03 2.2703854247290842e+03 3.8891896305989066e-12 5.5198854320223018e+02 1.9063308367804279e+03 9.3678845517314039e+03 -999 8.82529913e-01 7.602794794e-02 -2.04879060e-01
 133 6 1281933 2.0791610044532549e+03 2.2140579644004133e+03 3.1314598169161545e-12 5.5993379682913587e+02 1.8867047475758498e+03 9.3991341870838896e+03 -999 8.86402425e-01 7.613755282e-02 -2.04893225e-01
 134 6 1281933 2.0756845735605052e+03 2.1646689866596917e+03 2.6443422309376600e-12 5.7060917815140544e+02 1.8772972777715793e+03 9.4400050857536062e+03 -999 8.91643915e-01 7.627974525e-02 -2.04880161e-01
 135 6 1281933 2.0711446842626842e+03 2.1322519798834210e+03 2.5087453329450237e-12 5.6844016518293643e+02 1.8698758255275363e+03 9.5854745897279590e+03 -999 8.93569324e-01 7.632522176e-02 -2.04849309e-01
 136 6 1281933 2.0338432221384144e+03 2.0752259420383348e+03 2.0453407781137501e-12 5.4632270548950680e+02 1.8350077580986385e+03 9.7107126091605114e+03 -999 8.97918762e-01 7.640855432e-02 -2.04718685e-01
 137 6 1281933 2.0305646956619414e+03 2.0158598468149823e+03 1.7933422836189980e-12 5.3738491100056547e+02 1.8288669875854523e+03 9.8158369448222147e+03 -999 9.03791760e-01 7.648303158e-02 -2.04418734e-01
 138 6 1281933 2.0690997722654242e+03 1.9727480424411135e+03 1.7214546691173227e-12 5.2194520223018174e+02 1.8611747009927305e+03 9.9364185371666099e+03 -999 9.09973525e-01 7.650518751e-02 -2.03902511e-01
 139 6 1281933 2.1168728338286883e+03 1.9526711612644808e+03 1.6203657867855969e-12 5.1463225856933263e+02 1.9057810690346566e+03 1.0051166878014768e+04 -999 9.15100957e-01 7.647060339e-02 -2.03262644e-01
 140 6 1281933 2.1863266342934426e+03 1.9536761187640916e+03 1.5866464363880472e-12 5.1219148069570690e+02 1.9697094545645343e+03 1.0183037822840517e+04 -999 9.20445676e-01 7.639475517e-02 -2.02404713e-01