TITLE = "005.01 ALPHA 1.50 GRIDLEVEL 2"

VARIABLES = "ITERATION"  "GRID_LEVEL"  "GRID_SIZE"  "CONTINUITY"  "MOMENTUMX"  "MOMENTUMY"  "MOMENTUMZ"  "ENERGY"  "TURB1"  "TURB2"  "CL_TOT"  "CD_TOT"  "CM_TOT"

DATASETAUXDATA ParticipantID   = "005"
DATASETAUXDATA SubmissionDate  = "10-31-2024"
DATASETAUXDATA Name            = "Jeffrey A. Housman"
DATASETAUXDATA Email           = "jeffrey.a.housman@nasa.gov"
DATASETAUXDATA Institution     = "NASA Ames Research Center"
DATASETAUXDATA SolverName      = "LAVA Curvilinear"
DATASETAUXDATA BasicAlgorithm  = "RANS"
DATASETAUXDATA TurbulenceModel = "SA-neg"
DATASETAUXDATA GridId          = "Multiblock"
DATASETAUXDATA Discretization  = "Finite difference"
DATASETAUXDATA Order           = "2"
DATASETAUXDATA DistanceCalc    = "Exact"
DATASETAUXDATA Notes           = " "

ZONE T = "005.01 - Alpha 1.50 - Grid Level 2"
AUXDATA Tstatic         = "271.0"
AUXDATA Deltat          = "-999"
AUXDATA GridFileName    = "ONERA-OAT15A_230mmChord_780mmSpan_upZ_2024_06_25-Structured_23mm_Level-2.x"
AUXDATA Misc            = " "
 0 2 119662 1.6552888640744807e+05 3.4180182187785360e+05 3.0559061982775339e-14 1.3746791793739924e+05 1.6389992482795380e+05 4.8418109448173974e+05 -999 3.98519122e-03 4.525239036e-01 -4.41565258e-04
 1 2 119662 2.2871529246464372e+05 2.7327616615483689e+05 2.7477569615912043e-14 1.1759326047280287e+05 2.1933982302136582e+05 3.1239448566579539e+05 -999 2.30729603e-02 4.451194653e-01 -1.18725410e-02
 2 2 119662 2.8105677894963388e+05 2.4434090511155850e+05 2.5128772183871625e-14 1.3048473565814421e+05 2.6728028863273148e+05 2.0126373886288205e+05 -999 4.25271657e-02 4.481791337e-01 -2.40995773e-02
 3 2 119662 3.3292355769810756e+05 2.2585641492996155e+05 2.3316210981554036e-14 1.5371663748288914e+05 3.1667428149897698e+05 1.2884463590635272e+05 -999 5.82985713e-02 4.563651229e-01 -3.39654704e-02
 4 2 119662 3.8438091409655689e+05 2.0945333766042889e+05 2.1908031581898242e-14 1.8251506857979210e+05 3.6914785257366952e+05 8.1260877840554123e+04 -999 7.44268317e-02 4.677048797e-01 -4.30061718e-02
 5 2 119662 4.3331196956743405e+05 2.1149708081813023e+05 2.0800316164178123e-14 2.1314681194867147e+05 4.2270711301590793e+05 4.1710484625904202e+04 -999 8.69650121e-02 4.794532099e-01 -4.98341666e-02
 6 2 119662 3.9519375040533621e+05 2.5199667719261677e+05 1.9920215767468551e-14 2.2621682104472214e+05 3.8757675774924702e+05 3.3874725819516025e+04 -999 9.52561195e-02 4.847448103e-01 -5.50419587e-02
 7 2 119662 3.9183965969344811e+05 2.7258580170771020e+05 1.9121153435727664e-14 2.3103556688395815e+05 3.8089908745323541e+05 2.8154816524261787e+04 -999 1.01804363e-01 4.857364143e-01 -5.96237598e-02
 8 2 119662 4.2796668954863457e+05 2.7120087456754188e+05 1.8568510844116983e-14 2.2813266208328621e+05 4.3047428811123432e+05 2.4112397193894511e+04 -999 1.07266261e-01 4.810913560e-01 -6.30431176e-02
 9 2 119662 4.4783830633604660e+05 2.5165836560678587e+05 1.8170105196359634e-14 2.2919121961142120e+05 4.5404096417463804e+05 2.1286443895390013e+04 -999 1.12778940e-01 4.728866791e-01 -6.58435691e-02
 10 2 119662 4.6437474495264411e+05 2.4932162772981069e+05 1.7972641535154134e-14 2.2355808748419784e+05 4.8132716668357869e+05 1.9075011128396403e+04 -999 1.16697886e-01 4.665246603e-01 -6.76183000e-02
 11 2 119662 3.8296104019524623e+05 2.1447491166310292e+05 1.7773841284613715e-14 2.0557148557913207e+05 3.9100245832745894e+05 1.7137201231423020e+04 -999 1.21284511e-01 4.586461478e-01 -6.97270757e-02
 12 2 119662 3.6214875701016327e+05 2.1707081231477731e+05 1.7637830513750502e-14 1.9805408156585440e+05 3.6449691124523577e+05 1.5564575268745029e+04 -999 1.24804282e-01 4.523186971e-01 -7.13990366e-02
 13 2 119662 3.4336746412521601e+05 1.9104263419354407e+05 1.7587652268532197e-14 1.8815587063782799e+05 3.4234414139563404e+05 1.4259211780159294e+04 -999 1.27473438e-01 4.468668983e-01 -7.27892135e-02
 14 2 119662 3.7681989463229262e+05 2.0041711042360734e+05 1.7601650108265282e-14 1.8643696297171683e+05 3.8819056961705827e+05 1.3139884663904080e+04 -999 1.29220006e-01 4.424743975e-01 -7.38226722e-02
 15 2 119662 3.4067383098229225e+05 1.6819521940103569e+05 1.7577655422086220e-14 1.7550739317176610e+05 3.4700974847350141e+05 1.2179790850257164e+04 -999 1.30406512e-01 4.388059423e-01 -7.46190310e-02
 16 2 119662 3.1792354082875140e+05 1.7608065203961267e+05 1.7467237406914980e-14 1.6866187920082622e+05 3.2431063347713451e+05 1.1134340791335435e+04 -999 1.31429878e-01 4.350001929e-01 -7.53552064e-02
 17 2 119662 2.8261550952930242e+05 1.6880228752810272e+05 1.7340135889646225e-14 1.5480713696687392e+05 2.8815671210511052e+05 1.0256141749226332e+04 -999 1.32465503e-01 4.307915397e-01 -7.61044048e-02
 18 2 119662 2.9443560278445843e+05 1.6439795480879524e+05 1.7238696289848306e-14 1.5183123950979486e+05 2.9973462309787591e+05 9.4834368269508886e+03 -999 1.33692870e-01 4.254957681e-01 -7.69459993e-02
 19 2 119662 2.6580019059849106e+05 1.4554171716551643e+05 1.7120048125150585e-14 1.4035603722670540e+05 2.7073009356801212e+05 8.8208469907747021e+03 -999 1.34448879e-01 4.219644818e-01 -7.74088285e-02
 20 2 119662 3.1262258601360919e+05 1.7284233442191783e+05 1.6996535792870451e-14 1.4688228801770430e+05 3.2841783034822793e+05 8.2566601854821001e+03 -999 1.35305532e-01 4.176398092e-01 -7.78978492e-02
 21 2 119662 2.5850271739296851e+05 1.5914754966339254e+05 1.6856059916304205e-14 1.3094381432465397e+05 2.7423171116729151e+05 7.6275848449166770e+03 -999 1.35892221e-01 4.139384596e-01 -7.82106847e-02
 22 2 119662 2.1701621731093369e+05 1.2977770863586794e+05 1.6694766966046621e-14 1.1777405924464168e+05 2.2219415264429530e+05 7.0686296799768497e+03 -999 1.36527417e-01 4.094456419e-01 -7.85463852e-02
 23 2 119662 1.9935918703604786e+05 1.2450092312089432e+05 1.6543565300863014e-14 1.0957882671019952e+05 2.0113535296542666e+05 6.5780264273229586e+03 -999 1.37038715e-01 4.053286350e-01 -7.88168549e-02
 24 2 119662 2.2735173853932068e+05 1.2738253807688483e+05 1.6419994184235996e-14 1.0917053003628489e+05 2.3672544382958720e+05 6.1432286012013319e+03 -999 1.37490866e-01 4.012806155e-01 -7.90572194e-02
 25 2 119662 2.0365987787878784e+05 1.0578657359329304e+05 1.6349162619122538e-14 1.0136852442554254e+05 2.1015790891649079e+05 5.7705458630526246e+03 -999 1.37781306e-01 3.983827387e-01 -7.92135787e-02
 26 2 119662 1.8254847957397022e+05 1.0730754817842013e+05 1.6203311816789200e-14 9.4912458951185326e+04 1.8950191095033716e+05 5.3232124685613016e+03 -999 1.38039130e-01 3.951982824e-01 -7.93541886e-02
 27 2 119662 1.5615389542543018e+05 1.0094065949195286e+05 1.6015007300154368e-14 8.5345984679064757e+04 1.6150808179302048e+05 4.9221287912249290e+03 -999 1.38320003e-01 3.914396211e-01 -7.95127811e-02
 28 2 119662 1.4656669084810442e+05 9.4463317408216230e+04 1.5816359846940542e-14 7.8516809205939309e+04 1.4930954014512640e+05 4.5698327081600337e+03 -999 1.38585135e-01 3.875623273e-01 -7.96696813e-02
 29 2 119662 1.5812732891676569e+05 9.1848853221317462e+04 1.5620901620419020e-14 7.6297357539931501e+04 1.6237905689529251e+05 4.2625703291683249e+03 -999 1.38816007e-01 3.838899922e-01 -7.98122920e-02
 30 2 119662 1.4842227594259483e+05 8.4358307719335309e+04 1.5487605237141554e-14 7.1769741735470365e+04 1.5494047646276403e+05 4.0015222132171380e+03 -999 1.38960151e-01 3.814282191e-01 -7.99034555e-02
 31 2 119662 1.2750108168084917e+05 7.9171544913366335e+04 1.5292926024336454e-14 6.5755803334124153e+04 1.3375496878492465e+05 3.7057440552732351e+03 -999 1.39100038e-01 3.785267802e-01 -7.99932816e-02
 32 2 119662 1.0632892722496661e+05 7.4903489872060672e+04 1.5051070366106127e-14 5.8977682430348279e+04 1.1025483271040262e+05 3.4355395280867392e+03 -999 1.39261996e-01 3.750636615e-01 -8.00982817e-02
 33 2 119662 9.8278079309753506e+04 7.0705743346191375e+04 1.4808141567084850e-14 5.3892098733904262e+04 9.9853112380899358e+04 3.1951903950593692e+03 -999 1.39417431e-01 3.716252575e-01 -8.02002003e-02
 34 2 119662 1.0733502469824470e+05 7.0719798596948414e+04 1.4587997181269276e-14 5.2047040420772610e+04 1.1119836909889943e+05 2.9859010994500018e+03 -999 1.39552108e-01 3.685507912e-01 -8.02888239e-02
 35 2 119662 1.0501144156628584e+05 6.5688517006438007e+04 1.4422711544415161e-14 5.0084076597366227e+04 1.0824065645254610e+05 2.8039787722274755e+03 -999 1.39654758e-01 3.661508250e-01 -8.03557758e-02
 36 2 119662 8.9459441195182415e+04 6.4333419422319246e+04 1.4222940662801153e-14 4.5708537266035048e+04 9.4334021009198899e+04 2.5924526157371083e+03 -999 1.39742934e-01 3.636546617e-01 -8.04129610e-02
 37 2 119662 7.1982179317558985e+04 5.8285499841625497e+04 1.3987740927891646e-14 4.0473755494605903e+04 7.5709899590768458e+04 2.4020396916513041e+03 -999 1.39845598e-01 3.607628724e-01 -8.04792935e-02
 38 2 119662 6.3019920982881878e+04 5.3256704938733987e+04 1.3714541082365662e-14 3.6199607788476060e+04 6.3960642230255187e+04 2.2307839940354393e+03 -999 1.39958829e-01 3.576011469e-01 -8.05519304e-02
 39 2 119662 6.6627015609034323e+04 5.1926515737144007e+04 1.3441227251162763e-14 3.4196869196411870e+04 6.8431770178973835e+04 2.0803208062298063e+03 -999 1.40067564e-01 3.545823926e-01 -8.06210558e-02
 40 2 119662 6.5910339023969165e+04 4.9925101542472628e+04 1.3255165776661651e-14 3.2810245779951103e+04 6.8418127285765018e+04 1.9515113348580785e+03 -999 1.40146474e-01 3.523846806e-01 -8.06707484e-02
 41 2 119662 5.6099995057670996e+04 4.7581953369121911e+04 1.3041441328753510e-14 3.0175030717151170e+04 5.9353656548035877e+04 1.7891446146118847e+03 -999 1.40213867e-01 3.500740061e-01 -8.07143523e-02
 42 2 119662 4.4570742434231252e+04 4.4792813490925466e+04 1.2782264291849287e-14 2.7103829465535895e+04 4.7026601764185463e+04 1.6435610759499009e+03 -999 1.40295526e-01 3.472905288e-01 -8.07676175e-02
 43 2 119662 3.8104806313948204e+04 4.1818408463982894e+04 1.2488768079325833e-14 2.4402971073973891e+04 3.8769977406549995e+04 1.5152025304091376e+03 -999 1.40386451e-01 3.442197207e-01 -8.08269603e-02
 44 2 119662 3.8322004295329469e+04 4.0387330683688873e+04 1.2217515497726689e-14 2.2928383287730863e+04 3.9148224028271237e+04 1.4058603173676217e+03 -999 1.40468539e-01 3.414778988e-01 -8.08801128e-02
 45 2 119662 3.9738089438563577e+04 4.0312504161752593e+04 1.1997035541187665e-14 2.2112287290626264e+04 4.1559747594331573e+04 1.3050726504666484e+03 -999 1.40538524e-01 3.391633201e-01 -8.09248512e-02
 46 2 119662 3.3865651049839944e+04 3.7866080537159192e+04 1.1779227795756439e-14 2.0688784555843424e+04 3.5817078321371220e+04 1.1831094694193916e+03 -999 1.40593851e-01 3.368742131e-01 -8.09619483e-02
 47 2 119662 2.7499830232479198e+04 3.5733134520129643e+04 1.1510672153663352e-14 1.9122874942519724e+04 2.8846770595887017e+04 1.0762637613474062e+03 -999 1.40660503e-01 3.341316413e-01 -8.10069168e-02
 48 2 119662 2.3306775708890618e+04 3.3856137240607488e+04 1.1210623718474018e-14 1.7636597004244115e+04 2.3590117160387115e+04 9.8306685526565923e+02 -999 1.40738007e-01 3.309799404e-01 -8.10586875e-02
 49 2 119662 2.2296319213106570e+04 3.2532940986828424e+04 1.0930570143624812e-14 1.6598994035379816e+04 2.2309955691641444e+04 9.0475248681327525e+02 -999 1.40813104e-01 3.279758036e-01 -8.11075118e-02
 50 2 119662 2.2078150640935950e+04 3.1691185193302601e+04 1.0677155727252207e-14 1.5874984746236178e+04 2.2306707085341619e+04 8.3817317177150960e+02 -999 1.40880081e-01 3.253349678e-01 -8.11496002e-02
 51 2 119662 1.9675113919394818e+04 3.0370226539360581e+04 1.0434847283870843e-14 1.5045163996190367e+04 1.9915979844631780e+04 7.5079459375782005e+02 -999 1.40926228e-01 3.227193755e-01 -8.11789184e-02
 52 2 119662 1.7129113667064172e+04 2.8977940798278789e+04 1.0148657840903105e-14 1.4090561067370523e+04 1.7156836565568461e+04 6.7874633613658182e+02 -999 1.40979055e-01 3.195732578e-01 -8.12113977e-02
 53 2 119662 1.5252931395984549e+04 2.7557901882775004e+04 9.8026145378896307e-15 1.3072076636652168e+04 1.5003110001159228e+04 6.1886647604187124e+02 -999 1.41037958e-01 3.158864103e-01 -8.12442308e-02
 54 2 119662 1.4312360420162267e+04 2.6371056054957942e+04 9.4700615045618813e-15 1.2193849003720918e+04 1.4048089447383632e+04 5.6959226251243217e+02 -999 1.41092650e-01 3.122778703e-01 -8.12691847e-02
 55 2 119662 1.3740152992735864e+04 2.5416945740895211e+04 9.1759028707594941e-15 1.1472118334506575e+04 1.3629544897699894e+04 5.2859763002398063e+02 -999 1.41140017e-01 3.089848121e-01 -8.12849179e-02
 56 2 119662 1.2614039256125296e+04 2.4329641947987257e+04 8.8944219659798870e-15 1.0722911058881042e+04 1.2641890763147201e+04 4.8255755625985466e+02 -999 1.41161402e-01 3.054371193e-01 -8.12703714e-02
 57 2 119662 1.1465627549503677e+04 2.3107479846021397e+04 8.5624011173643481e-15 9.8625515490576108e+03 1.1659563202430048e+04 4.4803358856337991e+02 -999 1.41183760e-01 3.010024564e-01 -8.12387294e-02
 58 2 119662 1.0588395682926744e+04 2.1848631139543551e+04 8.1962635587862284e-15 8.9937973811294887e+03 1.1024714610565976e+04 4.2381517406182792e+02 -999 1.41209324e-01 2.958025764e-01 -8.11822235e-02
 59 2 119662 1.0103792013302511e+04 2.0786934582496073e+04 7.8533968264418555e-15 8.3199796141950592e+03 1.0825876152558894e+04 4.0552536186534189e+02 -999 1.41241229e-01 2.907160757e-01 -8.11070149e-02
 60 2 119662 9.8747925903874293e+03 1.9928155586457207e+04 7.5762584524882054e-15 7.8486146552392893e+03 1.0863609056211651e+04 3.9023252951374536e+02 -999 1.41284920e-01 2.859475543e-01 -8.10222033e-02
 61 2 119662 9.4492223062309222e+03 1.8950770013888836e+04 7.2709296596898767e-15 7.3720002407676939e+03 1.0715214414539412e+04 3.7464851713733856e+02 -999 1.41366962e-01 2.801511141e-01 -8.08772778e-02
 62 2 119662 9.2543983679717403e+03 1.7884290110877104e+04 6.9551923196527439e-15 7.0313079531699359e+03 1.0759303359221496e+04 3.7174853318310488e+02 -999 1.41549121e-01 2.726003620e-01 -8.06810767e-02
 63 2 119662 9.3876991188779029e+03 1.6895410877259077e+04 6.6746524751277024e-15 6.9501788427322017e+03 1.1034614717551407e+04 3.7764492630844171e+02 -999 1.41898188e-01 2.638619536e-01 -8.04633306e-02
 64 2 119662 9.6770504595302718e+03 1.6129344699003632e+04 6.4588049638579896e-15 7.0519513821665523e+03 1.1376707352566247e+04 3.8414539649497834e+02 -999 1.42420684e-01 2.553854715e-01 -8.02935638e-02
 65 2 119662 9.9691718949887254e+03 1.5515074123660754e+04 6.3164246234090752e-15 7.1935698473112234e+03 1.1674862287336164e+04 3.9176825899148474e+02 -999 1.43119514e-01 2.471949792e-01 -8.02017835e-02
 66 2 119662 1.0040126385798609e+04 1.4630657720332070e+04 6.1694417599177502e-15 7.0096603685838572e+03 1.1700539613912239e+04 4.0759468678711158e+02 -999 1.44556702e-01 2.357578012e-01 -8.03118106e-02
 67 2 119662 1.0054181951430704e+04 1.3762895023985895e+04 6.0953461080782645e-15 6.7685822212330431e+03 1.1572743452059503e+04 4.5806163353769637e+02 -999 1.47107916e-01 2.204198380e-01 -8.08384735e-02
 68 2 119662 9.9049604161278912e+03 1.3243088445356299e+04 5.9587700768797960e-15 6.4936789812254592e+03 1.1235264490370100e+04 5.5220203302100003e+02 -999 1.50485230e-01 2.050168087e-01 -8.19993511e-02
 69 2 119662 9.6369110348983540e+03 1.2958636767821710e+04 5.7973428524505703e-15 6.2961882417242723e+03 1.0765756910241076e+04 7.7397087186752708e+02 -999 1.54240763e-01 1.908666256e-01 -8.37908275e-02
 70 2 119662 9.2996161487825448e+03 1.2823729667736368e+04 5.5667910053413785e-15 6.2171090925311701e+03 1.0219748001386295e+04 1.2421711069795977e+03 -999 1.58141368e-01 1.775309962e-01 -8.62107227e-02
 71 2 119662 8.4265749249426372e+03 1.1656992131444682e+04 5.2224706911467076e-15 6.0862713210301408e+03 9.0149736236569588e+03 2.1908164789704738e+03 -999 1.63695299e-01 1.577004773e-01 -9.11453058e-02
 72 2 119662 7.5295777723753963e+03 1.0952113197221452e+04 4.7495396154582394e-15 6.0409963394058432e+03 7.8395598595560778e+03 3.6657445424397592e+03 -999 1.66687106e-01 1.398132578e-01 -9.68180228e-02
 73 2 119662 6.7956346242248619e+03 1.0476497253020725e+04 4.3458893464989882e-15 5.9164485934359409e+03 6.9013652120731522e+03 6.1172542446459738e+03 -999 1.65419796e-01 1.257003840e-01 -1.01655394e-01
 74 2 119662 6.4548711520184679e+03 1.0570159382723592e+04 4.0244055618758957e-15 5.3916219561213748e+03 6.3581914219022001e+03 9.8043980769823920e+03 -999 1.60295680e-01 1.150557064e-01 -1.04721992e-01
 75 2 119662 6.3034816055593783e+03 1.0654025561949969e+04 3.7548400044074133e-15 4.9285653638163394e+03 6.1278080068432519e+03 1.0747997166003734e+04 -999 1.57683817e-01 1.122123326e-01 -1.05154861e-01
 76 2 119662 5.2883106270266517e+03 9.9476364409712423e+03 3.6559344475597387e-15 4.0296161263908048e+03 5.2153820628753265e+03 1.0854860429037395e+04 -999 1.49476933e-01 1.055430393e-01 -1.05387124e-01
 77 2 119662 4.6283211943472079e+03 9.7897389351204311e+03 4.0600521732275895e-15 3.3408141264692840e+03 4.5978396689428782e+03 9.4229202424301839e+03 -999 1.41040835e-01 9.978794099e-02 -1.04704433e-01
 78 2 119662 4.2630921073624377e+03 9.2101383003434748e+03 5.1151907980518544e-15 2.9670672445411101e+03 4.2439755467633495e+03 7.3048031466551984e+03 -999 1.36481394e-01 9.619313047e-02 -1.03928474e-01
 79 2 119662 4.0798051520600311e+03 8.6074997544040107e+03 6.3357316466862436e-15 2.9463084005146698e+03 4.0429104579569075e+03 5.9386637605466622e+03 -999 1.35097038e-01 9.430557650e-02 -1.03623924e-01
 80 2 119662 4.0218117784106121e+03 7.9223447004268246e+03 8.3175380428805250e-15 3.1538721697852548e+03 3.9292914910690847e+03 5.2869896301730478e+03 -999 1.34443311e-01 9.200927244e-02 -1.03473436e-01
 81 2 119662 3.5157267936574340e+03 6.7306644752098155e+03 5.6856624388177710e-15 3.1548725950576172e+03 3.4224658026179809e+03 5.0117793828898093e+03 -999 1.37450700e-01 8.848181804e-02 -1.04361931e-01
 82 2 119662 3.5951770725131869e+03 5.9621797237377941e+03 4.5675068203063665e-15 3.2702644521092552e+03 3.4470066609059263e+03 5.6091964141475200e+03 -999 1.47801162e-01 8.373306681e-02 -1.07856969e-01
 83 2 119662 4.1623943111458902e+03 6.6907499512258883e+03 4.1779146995865777e-15 3.5030046368454123e+03 4.0253528722055621e+03 1.3320347402133350e+04 -999 1.63771956e-01 7.965902534e-02 -1.14066155e-01
 84 2 119662 4.8538458115791927e+03 9.9530757181870576e+03 3.9479181209916313e-15 3.5736852674901279e+03 4.7941237021184661e+03 2.5959812278320074e+04 -999 1.81674743e-01 7.611872709e-02 -1.22133222e-01
 85 2 119662 5.4319843122042757e+03 1.2608655466964721e+04 3.6391531970909415e-15 3.4020114483930015e+03 7.5751112003881108e+03 6.6387438533589506e+04 -999 1.91162227e-01 7.455541881e-02 -1.27045614e-01
 86 2 119662 3.9997256986347429e+03 6.8849027445583843e+03 2.3087497784073686e-14 2.9665086389234384e+03 4.1832763103982734e+03 1.0199819011387891e+05 -999 2.04823697e-01 7.265306961e-02 -1.34522586e-01
 87 2 119662 3.4895697206207756e+03 5.7243659162628956e+03 1.6111309927106092e-14 3.4295991137456940e+03 3.8829114763749221e+03 1.5752608438458745e+05 -999 2.16958303e-01 7.098943846e-02 -1.41822672e-01
 88 2 119662 3.3004873895632454e+03 7.5394554596518692e+03 1.2504410133889207e-14 2.7602912541509877e+03 3.7523552224731388e+03 2.1335756799780621e+05 -999 2.19131455e-01 7.062389707e-02 -1.43218970e-01
 89 2 119662 3.2163478101371143e+03 8.1625395830339057e+03 1.1150049417019408e-14 2.7016716789268457e+03 3.7557032915104705e+03 1.3481523540900194e+05 -999 2.20220503e-01 7.043193556e-02 -1.43924732e-01
 90 2 119662 3.1543469073814649e+03 9.2995137563560147e+03 1.0564921936721832e-14 2.6749092129516594e+03 3.9275317511457424e+03 5.7768555901005479e+04 -999 2.21075793e-01 7.027808256e-02 -1.44479736e-01
 91 2 119662 2.6069380599475157e+03 3.1931087531055368e+03 7.8004372185526129e-15 2.4439337267496890e+03 2.5477618172480447e+03 1.1248345555670194e+05 -999 2.36350187e-01 6.745313009e-02 -1.54258498e-01
 92 2 119662 2.3555832449378222e+03 2.7427033167206268e+03 6.2893590641908869e-15 2.2338071342026019e+03 2.2335125898280239e+03 4.6282866749528992e+04 -999 2.50167984e-01 6.424130887e-02 -1.62786620e-01
 93 2 119662 2.2264247927529623e+03 2.8832602142877495e+03 7.2783866664383957e-15 2.1551423785674488e+03 2.2009947113763169e+03 3.0342112068806047e+04 -999 2.65167618e-01 6.085176641e-02 -1.70549175e-01
 94 2 119662 2.1377855375808995e+03 3.9735835404957370e+03 1.7413966434669942e-14 2.0559617877922456e+03 2.7538560991831296e+03 3.0664092169753258e+04 -999 2.74186614e-01 5.915792122e-02 -1.74318772e-01
 95 2 119662 2.1039559941803491e+03 3.6681982342565625e+03 1.4135952611075577e-14 1.9842660204203132e+03 2.5088616422648001e+03 3.0320560658234550e+04 -999 2.77945809e-01 5.846564687e-02 -1.75721156e-01
 96 2 119662 1.8320497577326159e+03 2.4410318790480060e+03 5.1492291034150534e-15 1.4174068794296199e+03 1.7641013428502347e+03 2.8397327556572960e+04 -999 3.02253772e-01 5.451530089e-02 -1.82864628e-01
 97 2 119662 1.7811896710090459e+03 2.0638021046768017e+03 4.3868235296191402e-15 1.0509624257484759e+03 1.7139679176659852e+03 2.6535351284310851e+04 -999 3.28041103e-01 5.104853137e-02 -1.88573833e-01
 98 2 119662 1.8354209363407524e+03 1.8365392370649568e+03 4.4102489490778504e-15 8.4279799146880760e+02 1.8007339973472886e+03 1.6507877916765825e+04 -999 3.48118839e-01 4.880924986e-02 -1.91783519e-01
 99 2 119662 1.9467290096373702e+03 1.7262917843057767e+03 4.7615939213245994e-15 7.2534162040709055e+02 1.9484703872917310e+03 1.3891034390530938e+04 -999 3.62718055e-01 4.742076919e-02 -1.93568580e-01
 100 2 119662 2.0928703609365166e+03 1.6785694112084839e+03 5.3614779536218135e-15 6.5654625788656085e+02 2.1323755845108226e+03 1.0974766924659958e+04 -999 3.73722750e-01 4.651079546e-02 -1.94662601e-01
 101 2 119662 1.7035248278265176e+03 1.4867967642379533e+03 3.0414574982695184e-14 5.1635772834719182e+02 1.7059395692822304e+03 8.0804826494186673e+03 -999 3.96396635e-01 4.523099685e-02 -1.96062524e-01
 102 2 119662 1.4755219298484201e+03 1.3265385421409435e+03 5.1801977545063917e-14 3.9470382585354810e+02 1.4570878809482790e+03 6.5986154814862730e+03 -999 4.24000722e-01 4.387337909e-02 -1.97067522e-01
 103 2 119662 1.4129146026218052e+03 1.2175406916308166e+03 6.0785940613044280e-14 3.1437001990924023e+02 1.4005413977477253e+03 5.2582829960115987e+03 -999 4.49379716e-01 4.288635510e-02 -1.97300272e-01
 104 2 119662 1.4786736521787329e+03 1.1748514557866413e+03 6.2225450731497820e-14 2.7992230740644550e+02 1.4942145768515004e+03 4.2985998557551784e+03 -999 4.68185124e-01 4.234648699e-02 -1.96984615e-01
 105 2 119662 1.6154872672632080e+03 1.1778712977489024e+03 6.1484637185061693e-14 2.6598627863150489e+02 1.6694532376907193e+03 3.7431812857047189e+03 -999 4.81256795e-01 4.208727007e-02 -1.96534026e-01
 106 2 119662 1.1594313487678783e+03 1.0494252354570217e+03 4.0902536152306485e-14 2.1440939694426109e+02 1.1389876310158954e+03 3.3421515512284909e+03 -999 5.17156738e-01 4.191901211e-02 -1.93726206e-01
 107 2 119662 9.5063941857629686e+02 9.5761966512284084e+02 2.8778110138112547e-14 1.8092689616586222e+02 9.0625950416159162e+02 3.1085149642856286e+03 -999 5.46426763e-01 4.180954239e-02 -1.90833998e-01
 108 2 119662 8.3934967478081830e+02 8.6511708054073245e+02 2.0644507485913803e-14 1.6432945545858851e+02 7.8841110930573996e+02 3.0294638237923873e+03 -999 5.72264081e-01 4.172982953e-02 -1.87866260e-01
 109 2 119662 7.8833666853831869e+02 8.0232566597776031e+02 1.5882337297774465e-14 1.5662336855650619e+02 7.3509720114979893e+02 3.1971100581077358e+03 -999 5.91484582e-01 4.163375569e-02 -1.85357640e-01
 110 2 119662 7.7551864293458448e+02 7.7829194121850412e+02 1.3566683109226847e-14 1.5038226390974580e+02 7.2194719742245331e+02 3.6948818033497887e+03 -999 6.02779346e-01 4.154011395e-02 -1.83712805e-01
 111 2 119662 7.0824246420975135e+02 8.1471232099284600e+02 4.5065366849993566e-14 1.5161824803089237e+02 6.5598024895534274e+02 4.1774347129641374e+03 -999 6.19306498e-01 4.087835712e-02 -1.81646543e-01
 112 2 119662 6.5522309131537224e+02 8.1196277368296398e+02 1.0818711042521715e-13 1.5853119569039737e+02 6.0435858437256684e+02 3.8684006386702722e+03 -999 6.37812076e-01 4.003925124e-02 -1.79310110e-01
 113 2 119662 6.2305266547410690e+02 7.6581825152062868e+02 1.6096962565859551e-13 1.6830532480396562e+02 5.7398506221598871e+02 3.5630094432299393e+03 -999 6.56643104e-01 3.903051136e-02 -1.76894165e-01
 114 2 119662 6.0848309299467655e+02 7.2797867719572776e+02 1.8313568550878426e-13 1.7740914859650096e+02 5.5928101523386442e+02 3.5259087827393873e+03 -999 6.75294614e-01 3.783504541e-02 -1.74443198e-01
 115 2 119662 6.1303846958042959e+02 7.1385895449140116e+02 1.8941436422650281e-13 1.8055363455965951e+02 5.6370825054776901e+02 2.9642974102610178e+03 -999 6.84547643e-01 3.712886147e-02 -1.73041646e-01
 116 2 119662 5.6598763823769264e+02 7.3781083681753364e+02 1.7660961873141900e-13 1.9112036404276907e+02 5.1900343171385168e+02 2.9849243112718837e+03 -999 6.95839856e-01 3.609693037e-02 -1.71644074e-01
 117 2 119662 5.3853914571046039e+02 7.6784199558292323e+02 1.5504087351425272e-13 2.2374426109371910e+02 4.9552908517768429e+02 3.4050039301999091e+03 -999 7.10466968e-01 3.479292137e-02 -1.69935386e-01
 118 2 119662 5.3772618518639194e+02 8.0470024699204748e+02 1.2618138893878651e-13 2.6707158270274999e+02 5.0260992606564935e+02 4.2748568806291087e+03 -999 7.27949080e-01 3.326235436e-02 -1.67920564e-01
 119 2 119662 5.5583239293921054e+02 8.3165190407423222e+02 1.0415371341928893e-13 2.8199147334875653e+02 5.2276827379683868e+02 4.0676254229493607e+03 -999 7.42828000e-01 3.185673796e-02 -1.65828011e-01
 120 2 119662 5.5471966925674815e+02 8.4514470512715002e+02 9.5440598798791277e-14 2.7521876357767786e+02 5.2134108617104073e+02 3.1571657366172417e+03 -999 7.49357897e-01 3.106155630e-02 -1.64452830e-01
 121 2 119662 5.0021565811910153e+02 7.6278790179965983e+02 7.7728393028650386e-14 2.5557930594043194e+02 4.6320209448682436e+02 3.3665890815272919e+03 -999 7.54154956e-01 3.052717194e-02 -1.63773805e-01
 122 2 119662 4.8488874015367657e+02 6.8774417493333806e+02 5.9702627311556867e-14 2.4367708515955874e+02 4.4554311012250321e+02 3.2931771936513046e+03 -999 7.59734093e-01 2.991408933e-02 -1.62988586e-01
 123 2 119662 4.9172351997911585e+02 6.2297463802786581e+02 4.3008589612947858e-14 2.3555617306208862e+02 4.5397986440374001e+02 3.7639181638493069e+03 -999 7.66801673e-01 2.914986081e-02 -1.62025871e-01
 124 2 119662 4.9019582588099144e+02 5.9531028452916166e+02 3.8383497318315868e-14 2.2562179793496978e+02 4.5422007822337360e+02 3.2536019405145303e+03 -999 7.70725481e-01 2.869121256e-02 -1.61420459e-01
 125 2 119662 4.9919658452522748e+02 5.7356805450375032e+02 3.5855811751027466e-14 2.1289990513464474e+02 4.6283698924834471e+02 3.2872160104122709e+03 -999 7.74744696e-01 2.821563478e-02 -1.60842418e-01
 126 2 119662 4.6763749576770709e+02 5.3689245188915140e+02 5.1916437708889335e-14 1.9371266585709193e+02 4.3227109049561585e+02 3.1781970417815578e+03 -999 7.78325092e-01 2.785937790e-02 -1.60513774e-01
 127 2 119662 4.4954233128322721e+02 4.9581594649817413e+02 9.3078578811685841e-14 1.7806506380938092e+02 4.1546330933757133e+02 3.6492934698194663e+03 -999 7.83284578e-01 2.735988121e-02 -1.60071263e-01
 128 2 119662 4.4262260201074605e+02 4.6021048941978887e+02 1.3638178716266595e-13 1.6799100611336843e+02 4.1038238053145653e+02 4.2238016600515248e+03 -999 7.89150787e-01 2.671778563e-02 -1.59329536e-01
 129 2 119662 4.3739307468842293e+02 4.4967439367002828e+02 1.5579976954554426e-13 1.6447539671033911e+02 4.0344535644498302e+02 3.7727422444890121e+03 -999 7.93117481e-01 2.624123412e-02 -1.58708894e-01
 130 2 119662 4.4752588320301390e+02 4.4811344544092361e+02 1.6353475827609331e-13 1.6178749447667559e+02 4.1362013648783324e+02 3.4568027376595510e+03 -999 7.95350819e-01 2.594493386e-02 -1.58305739e-01
 131 2 119662 4.0538267321887628e+02 4.2146325778750702e+02 1.7555337185063755e-13 1.5399073415168351e+02 3.6990800116580596e+02 4.0060153954355133e+03 -999 7.99681908e-01 2.541098774e-02 -1.57486442e-01
 132 2 119662 3.9444819180455482e+02 4.0534274831221916e+02 2.4460946254936810e-13 1.5532268815558436e+02 3.5956781578906936e+02 4.1588438834334929e+03 -999 8.04488346e-01 2.487796783e-02 -1.56855904e-01
 133 2 119662 3.9298470363922939e+02 3.9654613245883957e+02 3.0437942646982294e-13 1.5695102505442210e+02 3.5842254635573232e+02 4.1951727910181116e+03 -999 8.09698519e-01 2.425489331e-02 -1.56078206e-01
 134 2 119662 3.8385624103417450e+02 3.8993554912513275e+02 3.0635014905555325e-13 1.5292484258409274e+02 3.4933067704350543e+02 3.3310278398501100e+03 -999 8.11575121e-01 2.399436152e-02 -1.55669100e-01
 135 2 119662 4.0864906880829852e+02 3.9714980112488399e+02 3.0416737782406807e-13 1.4826767384494045e+02 3.7276769159738774e+02 3.8042974008426959e+03 -999 8.13983626e-01 2.365099693e-02 -1.55116412e-01
 136 2 119662 3.6731814233246655e+02 3.7607950111142031e+02 2.1971062314515328e-13 1.4501544673152262e+02 3.3084767417364304e+02 3.5697610496230773e+03 -999 8.16512113e-01 2.332755221e-02 -1.54529693e-01
 137 2 119662 3.5083397533024993e+02 3.6509082497358190e+02 1.7576807545536077e-13 1.4391146802633764e+02 3.1304782871571877e+02 4.2843537199065649e+03 -999 8.20298836e-01 2.288777657e-02 -1.53815809e-01
 138 2 119662 3.4367278728493011e+02 3.6516199672189913e+02 1.5513949000697829e-13 1.4152321998436042e+02 3.0519960672756099e+02 3.7875213548179445e+03 -999 8.22908113e-01 2.253824168e-02 -1.53218971e-01
 139 2 119662 3.4857612693231829e+02 3.6517687128665324e+02 1.4608672531646087e-13 1.3896587943391995e+02 3.0968463797123542e+02 3.8264274867704262e+03 -999 8.24465965e-01 2.229967432e-02 -1.52805553e-01
 140 2 119662 3.5037506890456723e+02 3.5759290514834947e+02 1.3684125722277060e-13 1.3775594455746440e+02 3.1173435193865066e+02 3.6659266712385374e+03 -999 8.25601865e-01 2.212744363e-02 -1.52524089e-01
 141 2 119662 3.2474970441154801e+02 3.4028740512848987e+02 1.0126696256890544e-13 1.3797723575396378e+02 2.8706468167335140e+02 4.2489238553338982e+03 -999 8.27463868e-01 2.188625103e-02 -1.52131185e-01