TITLE = "005.01 ALPHA 3.25 GRIDLEVEL 3"

VARIABLES = "ITERATION"  "GRID_LEVEL"  "GRID_SIZE"  "CONTINUITY"  "MOMENTUMX"  "MOMENTUMY"  "MOMENTUMZ"  "ENERGY"  "TURB1"  "TURB2"  "CL_TOT"  "CD_TOT"  "CM_TOT"

DATASETAUXDATA ParticipantID   = "005"
DATASETAUXDATA SubmissionDate  = "10-31-2024"
DATASETAUXDATA Name            = "Jeffrey A. Housman"
DATASETAUXDATA Email           = "jeffrey.a.housman@nasa.gov"
DATASETAUXDATA Institution     = "NASA Ames Research Center"
DATASETAUXDATA SolverName      = "LAVA Curvilinear"
DATASETAUXDATA BasicAlgorithm  = "RANS"
DATASETAUXDATA TurbulenceModel = "SA-neg"
DATASETAUXDATA GridId          = "Multiblock"
DATASETAUXDATA Discretization  = "Finite difference"
DATASETAUXDATA Order           = "2"
DATASETAUXDATA DistanceCalc    = "Exact"
DATASETAUXDATA Notes           = " "

ZONE T = "005.01 - Alpha 3.25 - Grid Level 3"
AUXDATA Tstatic         = "271.0"
AUXDATA Deltat          = "-999"
AUXDATA GridFileName    = "ONERA-OAT15A_230mmChord_780mmSpan_upZ_2024_06_25-Structured_23mm_Level-3.x"
AUXDATA Misc            = " "
 0 3 234820 2.6893957477722981e+05 6.4754866737405513e+05 4.4403333048629127e-14 2.4549488310579740e+05 2.7522956935222290e+05 9.8336037350613158e+05 -999 1.09205881e-02 6.040670974e-01 -6.82724902e-03
 1 3 234820 3.7891630880764447e+05 5.0625661796617566e+05 3.9158720281340449e-14 1.9869724022567301e+05 3.6734997238038905e+05 6.3792592430297914e+05 -999 4.92509000e-02 5.783448284e-01 -2.27353312e-02
 2 3 234820 4.5988840628626611e+05 4.4627723944767436e+05 3.5230058812717366e-14 2.2050478670558365e+05 4.4037121975800785e+05 4.1439545508257154e+05 -999 9.23027163e-02 5.694491379e-01 -4.02895129e-02
 3 3 234820 5.3924367287850159e+05 4.0679011504426826e+05 3.2194416829756414e-14 2.5902749415390391e+05 5.1540818751563964e+05 2.6869913182890596e+05 -999 1.29989806e-01 5.678885856e-01 -5.62502135e-02
 4 3 234820 6.1603304245884693e+05 3.7617225767200196e+05 2.9812955880050417e-14 3.0551451101558853e+05 5.9400526601826982e+05 1.7130757847785458e+05 -999 1.62747021e-01 5.706949481e-01 -6.86133769e-02
 5 3 234820 6.9093892466520309e+05 3.7946957159862772e+05 2.7959427364086455e-14 3.5647237551759067e+05 6.7751759060046147e+05 9.3077761060649616e+04 -999 1.88396624e-01 5.748359148e-01 -7.79392970e-02
 6 3 234820 6.3677238478659990e+05 4.2385553578083176e+05 2.6569104713940378e-14 3.7896473797450511e+05 6.2671597812391166e+05 6.6363861560737219e+04 -999 2.05848925e-01 5.723055993e-01 -8.49349416e-02
 7 3 234820 6.5151206624437461e+05 4.4437480001395044e+05 2.5303252227975600e-14 3.9477661427562142e+05 6.3703217469253193e+05 5.3276400213735906e+04 -999 2.19889591e-01 5.657035645e-01 -9.10950175e-02
 8 3 234820 7.0811201979181147e+05 4.4448992132668704e+05 2.4423367862320884e-14 4.0194683247179585e+05 7.1109995574836386e+05 4.5580262920030436e+04 -999 2.30782492e-01 5.552285871e-01 -9.57541227e-02
 9 3 234820 8.2375163492601784e+05 4.6326232966974512e+05 2.3804208140662854e-14 4.3353158050590247e+05 8.4519970414969604e+05 4.0454138610580354e+04 -999 2.41861615e-01 5.411579056e-01 -9.99939862e-02
 10 3 234820 8.1003759506007400e+05 4.2364951899431983e+05 2.3419964477627945e-14 4.1834203927881649e+05 8.3940313542051101e+05 3.6387585816012783e+04 -999 2.48349353e-01 5.321209793e-01 -1.02334785e-01
 11 3 234820 7.1421803026615572e+05 3.8875153262124164e+05 2.2914516088225419e-14 4.0180666042259056e+05 7.2467740397250606e+05 3.2947244555084646e+04 -999 2.56373782e-01 5.202549224e-01 -1.05348080e-01
 12 3 234820 6.7268591483615676e+05 4.0288047335303784e+05 2.2481668166955944e-14 3.8718630684088793e+05 6.7897566171067348e+05 3.0081330181021156e+04 -999 2.62239319e-01 5.110163214e-01 -1.07525877e-01
 13 3 234820 7.0748331347189180e+05 3.7871439995839773e+05 2.2104179900886188e-14 3.8900676073703222e+05 7.1732747599698568e+05 2.7704151057395600e+04 -999 2.67719880e-01 5.015709670e-01 -1.09563755e-01
 14 3 234820 6.9463270663580694e+05 3.6350010025631514e+05 2.1815327116230483e-14 3.6962887153404579e+05 7.1486990237679298e+05 2.5726380775597780e+04 -999 2.70770292e-01 4.954479943e-01 -1.10751512e-01
 15 3 234820 7.3812485824492748e+05 3.9629330868165998e+05 2.1562296279750232e-14 3.8427640425944078e+05 7.6535577984661993e+05 2.4077196910908853e+04 -999 2.73814190e-01 4.887126747e-01 -1.12019664e-01
 16 3 234820 6.6096370915054681e+05 3.8585330479886621e+05 2.1298620650471138e-14 3.5652247233219846e+05 6.8922193874960078e+05 2.2139848605653107e+04 -999 2.75856457e-01 4.833936247e-01 -1.12935653e-01
 17 3 234820 5.7160835321394447e+05 3.1700600195104687e+05 2.0989386069189533e-14 3.2485586952678155e+05 5.8257669270134822e+05 2.0486341933440264e+04 -999 2.78177095e-01 4.768431852e-01 -1.13982630e-01
 18 3 234820 5.6847967760420020e+05 3.2709345168678265e+05 2.0725365708591558e-14 3.1591284523931640e+05 5.7885926011315244e+05 1.9102357981169091e+04 -999 2.80200139e-01 4.704471232e-01 -1.14865508e-01
 19 3 234820 5.8448856611909554e+05 2.9716319170399581e+05 2.0530664341210781e-14 3.1186847260202572e+05 5.9566626075959089e+05 1.7884046883669460e+04 -999 2.81827813e-01 4.646387585e-01 -1.15524967e-01
 20 3 234820 6.0274875814826752e+05 3.0168554019940051e+05 2.0414333627825312e-14 3.0197788940706023e+05 6.3002153958203888e+05 1.6796423470415815e+04 -999 2.82936386e-01 4.601833371e-01 -1.15934008e-01
 21 3 234820 5.0853532166555797e+05 2.7104937598667125e+05 2.0208868726989959e-14 2.7844955331958254e+05 5.2885743786387355e+05 1.5544731702682009e+04 -999 2.84043791e-01 4.548634769e-01 -1.16307742e-01
 22 3 234820 4.5867834879137576e+05 2.6613087413937110e+05 2.0008751683341563e-14 2.6196958845200442e+05 4.6759400460390741e+05 1.4469538282041616e+04 -999 2.85072520e-01 4.495253557e-01 -1.16632400e-01
 23 3 234820 4.6527056487599318e+05 2.5160481404465972e+05 1.9815762257580782e-14 2.5325383471881555e+05 4.7112654218067642e+05 1.3526411033323982e+04 -999 2.86124053e-01 4.436411712e-01 -1.16949456e-01
 24 3 234820 4.6262008936385129e+05 2.4333581965322321e+05 1.9682637279706935e-14 2.4336520886707611e+05 4.7781148729650845e+05 1.2718599032737045e+04 -999 2.86806288e-01 4.394193872e-01 -1.17150094e-01
 25 3 234820 5.4044184892419761e+05 3.0184563043858198e+05 1.9553542367512533e-14 2.5697393510262822e+05 5.7443366999673296e+05 1.2002195650388687e+04 -999 2.87522103e-01 4.346409574e-01 -1.17363434e-01
 26 3 234820 4.4086806662828987e+05 2.6754249079907010e+05 1.9332168211038678e-14 2.2804176409458238e+05 4.7178850572398287e+05 1.1162127366878400e+04 -999 2.88008659e-01 4.305829314e-01 -1.17507270e-01
 27 3 234820 3.6812999893275084e+05 2.1800878303262437e+05 1.9099263700649506e-14 2.0538838362229816e+05 3.8166457709693769e+05 1.0410565175737964e+04 -999 2.88505579e-01 4.262120278e-01 -1.17658843e-01
 28 3 234820 3.5413059250912728e+05 2.0413351410544800e+05 1.8883103970590004e-14 1.9324532839905476e+05 3.5841382258691476e+05 9.7415589369689878e+03 -999 2.89002226e-01 4.215722312e-01 -1.17814470e-01
 29 3 234820 3.6918414683389862e+05 2.0203361395067794e+05 1.8741571202677042e-14 1.8764180174073536e+05 3.8426387593684491e+05 9.1642163914648409e+03 -999 2.89366411e-01 4.179547558e-01 -1.17931151e-01
 30 3 234820 4.2869492603991163e+05 2.4658415922604766e+05 1.8621228492259605e-14 1.9575361602956758e+05 4.5797836392607889e+05 8.6461643982225432e+03 -999 2.89737383e-01 4.141258033e-01 -1.18051519e-01
 31 3 234820 3.5277480282583332e+05 2.2109658222879801e+05 1.8416047044098354e-14 1.7481750339308166e+05 3.8214049653481698e+05 7.9919511066236109e+03 -999 2.89981908e-01 4.110128882e-01 -1.18126452e-01
 32 3 234820 2.8266386928881850e+05 1.7932125298907969e+05 1.8166610112221782e-14 1.5394847032485963e+05 3.0034642883995449e+05 7.4156523555196191e+03 -999 2.90265039e-01 4.073746920e-01 -1.18212725e-01
 33 3 234820 2.5325380732227219e+05 1.5775810561186046e+05 1.7910151478394401e-14 1.3925937831777945e+05 2.5786195404946478e+05 6.9014158267683961e+03 -999 2.90572528e-01 4.033617875e-01 -1.18305339e-01
 34 3 234820 2.6935575045859464e+05 1.5434075428211479e+05 1.7707893172048334e-14 1.3414895394096227e+05 2.7754965905438212e+05 6.4464098332931817e+03 -999 2.90846020e-01 3.997211606e-01 -1.18387134e-01
 35 3 234820 2.7744083425683645e+05 1.5508990327968347e+05 1.7573664320449718e-14 1.3085018082684994e+05 2.9291281955285359e+05 6.0512353800892633e+03 -999 2.91049347e-01 3.969663080e-01 -1.18448194e-01
 36 3 234820 2.3581751602098273e+05 1.3851894093532770e+05 1.7370973947249317e-14 1.1886523932351469e+05 2.5249572399136101e+05 5.5136742484112747e+03 -999 2.91225349e-01 3.941033600e-01 -1.18497421e-01
 37 3 234820 1.9121252271492590e+05 1.2550046893130985e+05 1.7120483075379467e-14 1.0572586059235183e+05 2.0336922706526131e+05 5.0461562092150389e+03 -999 2.91431055e-01 3.907928310e-01 -1.18555360e-01
 38 3 234820 1.6637746283484262e+05 1.1169853374727232e+05 1.6841209142302594e-14 9.3994520317627917e+04 1.7045776470038088e+05 4.6432589251960835e+03 -999 2.91660951e-01 3.871344451e-01 -1.18620579e-01
 39 3 234820 1.7275553637047880e+05 1.0863107901581515e+05 1.6593794723368944e-14 8.7692339619729712e+04 1.7749494107541253e+05 4.2949783798885137e+03 -999 2.91878587e-01 3.837065131e-01 -1.18682912e-01
 40 3 234820 1.8371098240203448e+05 1.0948116138283083e+05 1.6398696619425601e-14 8.5020780561113919e+04 1.9228586159444100e+05 3.9902857470421009e+03 -999 2.92067506e-01 3.807388748e-01 -1.18737992e-01
 41 3 234820 1.5532763741289880e+05 1.0034940589842219e+05 1.6177115679239651e-14 7.6923550827104089e+04 1.6670428954356318e+05 3.5961271190791417e+03 -999 2.92213331e-01 3.780844440e-01 -1.18777797e-01
 42 3 234820 1.2171447557514108e+05 9.0028190922711714e+04 1.5901984788643085e-14 6.7464690734906762e+04 1.3120381432384322e+05 3.2561100205687862e+03 -999 2.92393395e-01 3.748774839e-01 -1.18827936e-01
 43 3 234820 1.0071008790815594e+05 8.0846454122278941e+04 1.5583459758385028e-14 5.8823783643100236e+04 1.0463193987299321e+05 2.9665049465431262e+03 -999 2.92600143e-01 3.712804389e-01 -1.18887033e-01
 44 3 234820 9.9638250819550783e+04 7.7371892745555553e+04 1.5304875866951860e-14 5.3761919419354628e+04 1.0291893986757561e+05 2.7185462720029745e+03 -999 2.92795876e-01 3.679416222e-01 -1.18945087e-01
 45 3 234820 1.0315066602734455e+05 7.7157742480871748e+04 1.5072701730296120e-14 5.0928122196818731e+04 1.0874314942935819e+05 2.5067323633035085e+03 -999 2.92968029e-01 3.650337875e-01 -1.18998651e-01
 46 3 234820 8.8077212762788055e+04 7.0781195599544648e+04 1.4850152236690762e-14 4.6571450150942677e+04 9.4950304673999606e+04 2.2125536743240596e+03 -999 2.93100239e-01 3.624543734e-01 -1.19039326e-01
 47 3 234820 7.0419738845355416e+04 6.4533793412574683e+04 1.4556552775499547e-14 4.1584486720265304e+04 7.6894158066864562e+04 1.9740975829333584e+03 -999 2.93260140e-01 3.593857248e-01 -1.19089918e-01
 48 3 234820 5.6614886359970063e+04 5.8826495611908191e+04 1.4213098636117101e-14 3.6546040761222968e+04 6.0725863938034738e+04 1.7671271784313287e+03 -999 2.93451336e-01 3.557720435e-01 -1.19152742e-01
 49 3 234820 5.1460131802454918e+04 5.5386145817441356e+04 1.3891677916172611e-14 3.2946738618011826e+04 5.3955350377419738e+04 1.5860857259702157e+03 -999 2.93640939e-01 3.522235193e-01 -1.19218755e-01
 50 3 234820 4.9401363168330325e+04 5.3408945409250729e+04 1.3599287408124233e-14 3.0530660143526733e+04 5.1779720248245227e+04 1.4518985057425325e+03 -999 2.93810456e-01 3.490472958e-01 -1.19282448e-01
 51 3 234820 4.3080813760107463e+04 5.0621775325610753e+04 1.3344755679817270e-14 2.8272920923486348e+04 4.5719381248282887e+04 1.2612945442958369e+03 -999 2.93939362e-01 3.462585662e-01 -1.19322849e-01
 52 3 234820 3.5666455350718432e+04 4.7579849660920205e+04 1.3024778417991873e-14 2.5646146987714714e+04 3.7991398331099103e+04 1.1083218661059630e+03 -999 2.94099130e-01 3.428308145e-01 -1.19371527e-01
 53 3 234820 2.9321233604458874e+04 4.4437222759041841e+04 1.2634442080107133e-14 2.2854320248092456e+04 3.0728702841881397e+04 9.8301539328477520e+02 -999 2.94292658e-01 3.386848473e-01 -1.19428896e-01
 54 3 234820 2.5841421888805078e+04 4.1876667252147650e+04 1.2236513848069105e-14 2.0571320139172014e+04 2.6573422853469645e+04 8.8394842985430932e+02 -999 2.94485409e-01 3.344858250e-01 -1.19485657e-01
 55 3 234820 2.3655883177760887e+04 3.9848179997727042e+04 1.1909650326955774e-14 1.8959673988717077e+04 2.4042799990670941e+04 8.0511233906265136e+02 -999 2.94640241e-01 3.306015317e-01 -1.19542728e-01
 56 3 234820 2.1189553506707423e+04 3.7937788648057089e+04 1.1601958166109218e-14 1.7475918521193580e+04 2.1508720010004166e+04 7.1230770783926744e+02 -999 2.94728850e-01 3.268612053e-01 -1.19541890e-01
 57 3 234820 1.8495563660381184e+04 3.5740201712495611e+04 1.1220134530151156e-14 1.5780227457815021e+04 1.8703315073951107e+04 6.4239532015167538e+02 -999 2.94828814e-01 3.221161741e-01 -1.19527856e-01
 58 3 234820 1.6198719439082915e+04 3.3363554030496220e+04 1.0758102512627524e-14 1.4003860446747554e+04 1.6372777927895278e+04 5.9454182265833219e+02 -999 2.94938593e-01 3.162348123e-01 -1.19493092e-01
 59 3 234820 1.4810730294243383e+04 3.1305628947204073e+04 1.0319344837129821e-14 1.2570722431574832e+04 1.5168473977118001e+04 5.6159590818699996e+02 -999 2.95041593e-01 3.102158368e-01 -1.19441238e-01
 60 3 234820 1.3991498681729781e+04 2.9605830696326924e+04 9.9271107666094754e-15 1.1510489580629230e+04 1.4647800509204559e+04 5.3748838472677164e+02 -999 2.95142669e-01 3.043828537e-01 -1.19381562e-01
 61 3 234820 1.2912045019453233e+04 2.7759475710817285e+04 9.5227680613520621e-15 1.0547279942624935e+04 1.3929915311221452e+04 5.0681497406092143e+02 -999 2.95217103e-01 2.973150398e-01 -1.19235313e-01
 62 3 234820 1.2172578759705972e+04 2.5684874414031725e+04 9.0037901779783675e-15 9.7573352620694095e+03 1.3591101820056230e+04 5.0578123415224360e+02 -999 2.95408931e-01 2.877487386e-01 -1.19052651e-01
 63 3 234820 1.2155495770867212e+04 2.3703422376258481e+04 8.5561180125212423e-15 9.4768505982003026e+03 1.3900257074475079e+04 5.3258387601374739e+02 -999 2.95824311e-01 2.759836521e-01 -1.18892519e-01
 64 3 234820 1.2633888189227273e+04 2.2181126650200124e+04 8.2078358731642919e-15 9.6606461878272512e+03 1.4547939597968923e+04 5.7827311396188736e+02 -999 2.96486967e-01 2.638416772e-01 -1.18863765e-01
 65 3 234820 1.3138133717314817e+04 2.1032000932303465e+04 8.0206062899388631e-15 9.9440129776271278e+03 1.5104945942223962e+04 6.6505392151770707e+02 -999 2.97366193e-01 2.516026808e-01 -1.19032351e-01
 66 3 234820 1.2787346649597712e+04 1.9105940906870226e+04 7.6499236802670582e-15 9.1121047105026282e+03 1.4673183738371876e+04 8.9707463054261700e+02 -999 2.98860580e-01 2.327326517e-01 -1.19793712e-01
 67 3 234820 1.2504657084135790e+04 1.8039820149459876e+04 7.3602411611351287e-15 8.5581616438887286e+03 1.4026678433965160e+04 1.9855022787335163e+03 -999 3.00911882e-01 2.063877557e-01 -1.21652132e-01
 68 3 234820 1.1985781669169917e+04 1.7786609758426046e+04 7.0286102598193441e-15 8.6553824485320984e+03 1.2912362332403656e+04 5.1517918601019173e+03 -999 3.01945477e-01 1.796593733e-01 -1.24688983e-01
 69 3 234820 1.1793728281710604e+04 1.7492812630713517e+04 6.5349748827214531e-15 8.6700995726481869e+03 1.2316913042959188e+04 7.7547236200310990e+03 -999 3.01112520e-01 1.696328182e-01 -1.26116165e-01
 70 3 234820 1.1766509994983913e+04 1.7340025882007656e+04 6.2449428301368330e-15 8.6465605546480838e+03 1.2005109229318392e+04 9.6314445807410211e+03 -999 3.00096175e-01 1.636278921e-01 -1.26913336e-01
 71 3 234820 9.8217234174518089e+03 1.4649930608779663e+04 5.7420095883312662e-15 7.8951487310580715e+03 1.0273689745111578e+04 2.6553583446129749e+04 -999 2.95786199e-01 1.486354964e-01 -1.28363403e-01
 72 3 234820 8.4038827693657786e+03 1.4036077746551680e+04 5.2484550203274879e-15 6.9424598893015045e+03 8.5876675287335820e+03 8.3479893955881096e+04 -999 2.86533254e-01 1.299252357e-01 -1.28843948e-01
 73 3 234820 7.8450033867172115e+03 2.3952547539581363e+04 4.7865426093698849e-15 5.5522715467900152e+03 8.5976935495108519e+03 4.9157610181610093e+04 -999 2.76809073e-01 1.173703450e-01 -1.27123092e-01
 74 3 234820 7.7361507162331809e+03 2.6303379881652272e+04 4.4640233659391631e-15 5.4272594159809350e+03 1.0064106823844375e+04 2.8037092433749942e+04 -999 2.75421544e-01 1.156213145e-01 -1.26625237e-01
 75 3 234820 7.4991371148737271e+03 2.9047921001752995e+04 4.3436801694439355e-15 5.3225320045029366e+03 1.1384659926076896e+04 1.8150948739606934e+04 -999 2.74638332e-01 1.145618463e-01 -1.26314023e-01
 76 3 234820 6.5772975526595937e+03 2.0529576442317331e+04 4.2152748842347153e-15 4.8980908722564909e+03 7.9365651729050414e+03 1.5088603929599905e+04 -999 2.71092622e-01 1.098970531e-01 -1.24947956e-01
 77 3 234820 5.8056937473049011e+03 1.4524717010043529e+04 4.1261053942126698e-15 4.7309556720272085e+03 5.8793612986262933e+03 1.3392375638332080e+04 -999 2.68021866e-01 1.047230657e-01 -1.23247142e-01
 78 3 234820 5.5059657499860978e+03 1.2885578401926901e+04 3.9406288339544884e-15 4.6958900062217599e+03 5.4882038721053923e+03 1.2773380365258779e+04 -999 2.67462036e-01 1.017662219e-01 -1.22295119e-01
 79 3 234820 5.2830792690659136e+03 1.1930561732986002e+04 3.7540906305555783e-15 4.6991830579730495e+03 5.2423143547886029e+03 1.3928682161182378e+04 -999 2.68024000e-01 9.985724090e-02 -1.21834813e-01
 80 3 234820 5.2613010831313659e+03 1.0756339143040379e+04 3.8057481584931663e-15 4.7384671881010363e+03 5.1498940082218214e+03 1.3663052657719991e+04 -999 2.69659392e-01 9.740223700e-02 -1.21438309e-01
 81 3 234820 4.5942714662850676e+03 7.8123038776048688e+03 4.5263950255730550e-15 4.0003720358455980e+03 4.4150622372453126e+03 1.8393951805867571e+04 -999 2.89788523e-01 9.006998536e-02 -1.24784377e-01
 82 3 234820 4.8185081315108255e+03 7.9736777364389982e+03 4.8322463388125855e-15 3.9465946944120883e+03 4.6896507299827754e+03 4.3403221104560493e+04 -999 3.20295914e-01 8.436645783e-02 -1.33278604e-01
 83 3 234820 5.2134676178060608e+03 1.0578418259971097e+04 4.8685361113146966e-15 3.6383767936226577e+03 5.9694364620696733e+03 7.1169764923233830e+04 -999 3.52907782e-01 8.020560857e-02 -1.44720850e-01
 84 3 234820 5.3109737573447856e+03 9.7479792291352915e+03 4.4199971568783872e-15 3.3530984077308703e+03 8.7387638110249445e+03 1.3234198485835185e+05 -999 3.67094949e-01 7.874270167e-02 -1.50212210e-01
 85 3 234820 5.1423397380745382e+03 8.7140894885251655e+03 4.2425729958800478e-15 3.5823062885309691e+03 1.1438271534080033e+04 2.7214443539660732e+05 -999 3.79452070e-01 7.754317704e-02 -1.54952875e-01
 86 3 234820 3.1667946228628562e+03 4.3933025751946543e+03 4.5401421580215464e-15 2.7710975911697501e+03 3.1987409536929904e+03 2.7186810902996350e+05 -999 4.09006256e-01 7.500794788e-02 -1.66141085e-01
 87 3 234820 2.7022051601104358e+03 4.3222268231869484e+03 5.6215702407646235e-15 2.3048481919471365e+03 2.8623317557822861e+03 1.6422083815466191e+05 -999 4.37743468e-01 7.244204889e-02 -1.76279371e-01
 88 3 234820 2.5188082133420648e+03 5.9724606090743773e+03 1.4276909037242689e-14 2.1586360231192084e+03 2.8398717683006753e+03 1.3141910454012919e+05 -999 4.49826155e-01 7.145766305e-02 -1.79985803e-01
 89 3 234820 2.4688336158544244e+03 5.5662289054194689e+03 1.4241879431343789e-14 1.9536848062526983e+03 2.7532294667973115e+03 4.7099999985598275e+04 -999 4.53896133e-01 7.115106450e-02 -1.81143540e-01
 90 3 234820 2.4329962528216593e+03 4.7727233330451918e+03 1.0620801109050872e-14 1.9079432140511713e+03 2.5465412214981893e+03 4.0275862184571364e+04 -999 4.57181026e-01 7.090992005e-02 -1.82054740e-01
 91 3 234820 1.9999588161876807e+03 2.4263554921305567e+03 5.1640987284493336e-15 1.1916680192455685e+03 1.9240789364530767e+03 3.0752236091208342e+05 -999 5.29191312e-01 6.751092590e-02 -1.97632649e-01
 92 3 234820 1.9000949176585700e+03 2.2032400411024314e+03 5.6417646573997799e-15 7.6681365285054903e+02 1.8318336134156305e+03 7.3504835948779830e+04 -999 5.95403081e-01 6.613053922e-02 -2.05981865e-01
 93 3 234820 1.9118495724723489e+03 2.0276140557071003e+03 6.3130432887801977e-15 5.8790865345774807e+02 1.8630860936111271e+03 3.7117009565547982e+04 -999 6.41349912e-01 6.611282824e-02 -2.08414156e-01
 94 3 234820 1.8685958171171587e+03 1.9497936481128197e+03 7.7798591405080701e-15 5.2108592652166351e+02 1.8270748891558865e+03 2.2435842754609621e+04 -999 6.62750682e-01 6.636629894e-02 -2.08455559e-01
 95 3 234820 1.9116240874294683e+03 1.8330658395858113e+03 8.3009280804889424e-15 4.5995378305049388e+02 1.8870429734532081e+03 1.5943874769402288e+04 -999 6.94601894e-01 6.692536538e-02 -2.07880032e-01
 96 3 234820 1.3883617777277789e+03 1.5660645841273147e+03 1.2903131533167323e-13 3.5694638864601995e+02 1.3328329608510624e+03 1.7583343508638722e+04 -999 7.50558633e-01 6.861688113e-02 -2.04698186e-01
 97 3 234820 1.1106194445977028e+03 1.3585402962960607e+03 2.0003521540369621e-13 2.7127919876342384e+02 1.0370259201244351e+03 1.0642894054864708e+04 -999 8.07982789e-01 6.968320519e-02 -2.00278425e-01
 98 3 234820 9.7733169994853449e+02 1.2374554461549244e+03 2.1521352073127544e-13 2.4449981478692874e+02 8.9491096009325906e+02 8.8421824975183281e+03 -999 8.51760631e-01 6.970200421e-02 -1.96143410e-01
 99 3 234820 9.2632390200330804e+02 1.2114065182528318e+03 2.1196595892558806e-13 2.4395123330830467e+02 8.4153773318559558e+02 8.8788886623410544e+03 -999 8.72293195e-01 6.925877219e-02 -1.94085542e-01
 100 3 234820 8.9374607807919676e+02 1.0856774764775921e+03 2.0520905778669380e-13 2.4388322601059929e+02 8.0187908950655367e+02 8.7659349454318362e+03 -999 8.94176059e-01 6.853092209e-02 -1.91872839e-01
 101 3 234820 8.8670751535449642e+02 1.2424456658932384e+03 2.2760678313289141e-13 2.7571971755557001e+02 7.9695574148682272e+02 9.8764587452925534e+03 -999 9.03958285e-01 6.811907574e-02 -1.91408551e-01
 102 3 234820 8.8546773086782935e+02 1.2657803385700113e+03 3.1592768339503162e-13 3.2597510164790771e+02 7.9146208075304799e+02 8.7852664187951013e+03 -999 9.15958953e-01 6.757204327e-02 -1.90819260e-01
 103 3 234820 8.8645672783664168e+02 1.2892207485153876e+03 4.2168585272847577e-13 3.9012111972157817e+02 7.8866736137551413e+02 9.3386632779309039e+03 -999 9.28403856e-01 6.694840805e-02 -1.90124294e-01
 104 3 234820 8.9797717281014491e+02 1.3117889340103004e+03 5.2962969980590949e-13 4.6361096135966426e+02 7.9631431509818560e+02 9.6411404546132235e+03 -999 9.42531412e-01 6.618723759e-02 -1.89240889e-01
 105 3 234820 9.3321767936015169e+02 1.3339261352893573e+03 6.0629231046334174e-13 5.0874208799903676e+02 8.2618992735074539e+02 9.9263367661987231e+03 -999 9.54970710e-01 6.547111581e-02 -1.88368282e-01
 106 3 234820 9.1455173435980078e+02 1.3681899089228266e+03 5.9006764101956988e-13 5.0319721680451721e+02 8.0514170341798194e+02 7.9608665964068323e+03 -999 9.64993644e-01 6.518735417e-02 -1.88259023e-01
 107 3 234820 9.1301864362269464e+02 1.3807309071804125e+03 6.9064825050095701e-13 5.0355773571924891e+02 8.0140501479662657e+02 8.6184867235638430e+03 -999 9.76637902e-01 6.480823855e-02 -1.88113370e-01
 108 3 234820 9.2215970107713429e+02 1.3683708203880999e+03 8.1942608188622370e-13 4.9944878869091360e+02 8.0791006284202820e+02 8.1804012369306474e+03 -999 9.88325700e-01 6.438166019e-02 -1.87917129e-01
 109 3 234820 9.3824180545523041e+02 1.3420998799832653e+03 9.0545118857887457e-13 4.8616533539883193e+02 8.2029714594295422e+02 1.0620133084249392e+04 -999 9.99742311e-01 6.391166658e-02 -1.87606426e-01
 110 3 234820 9.5488036776995227e+02 1.3187290857620962e+03 9.2347159696105861e-13 4.7735993214318790e+02 8.3406312482240423e+02 6.9479470242246025e+03 -999 1.00599411e+00 6.361896202e-02 -1.87335872e-01
 111 3 234820 9.1710713847922898e+02 1.2498133331182594e+03 7.7997541409837725e-13 4.2939973019206610e+02 8.0073740379685682e+02 8.8074828907612628e+03 -999 1.00903840e+00 6.322753215e-02 -1.86782712e-01
 112 3 234820 8.9262075079497731e+02 1.1758569878189537e+03 6.5927447016267174e-13 3.8686827344618229e+02 7.7976878392866547e+02 1.0329085544339780e+04 -999 1.01292095e+00 6.277705688e-02 -1.86179449e-01
 113 3 234820 8.8052353103564519e+02 1.1017257843727791e+03 5.8082367396617160e-13 3.5154714169856595e+02 7.7006112285696031e+02 1.0670134156629616e+04 -999 1.01758331e+00 6.230182663e-02 -1.85603315e-01
 114 3 234820 8.8193161719843704e+02 1.0447526497075451e+03 5.4064631101532714e-13 3.2527462454379503e+02 7.7281575943391454e+02 1.0150747230821393e+04 -999 1.02213330e+00 6.189955806e-02 -1.85175114e-01
 115 3 234820 8.9616475952777466e+02 1.0118777237129698e+03 5.1850944091121101e-13 3.0976246783190442e+02 7.8674226941552729e+02 1.0418313584278107e+04 -999 1.02576109e+00 6.161750579e-02 -1.84890062e-01
 116 3 234820 9.0070747392872545e+02 9.8875583141592392e+02 4.4883919633036409e-13 2.9032454666189693e+02 7.8981769975812199e+02 1.0877406673419722e+04 -999 1.02905748e+00 6.145478655e-02 -1.84769813e-01
 117 3 234820 9.1180817153059252e+02 9.6309100317569835e+02 3.8362178176717943e-13 2.7992894045094812e+02 7.9921358997420339e+02 1.0959867616142377e+04 -999 1.03342517e+00 6.128409781e-02 -1.84725111e-01
 118 3 234820 9.2714333035841048e+02 9.3573944000382426e+02 3.4213296484793442e-13 2.8285570324494614e+02 8.1349156978228666e+02 1.0105121606794377e+04 -999 1.03818654e+00 6.100197365e-02 -1.84411537e-01
 119 3 234820 9.4833490447418615e+02 9.1774132218396733e+02 3.2426769604553881e-13 2.8468502725026821e+02 8.3470696215972725e+02 1.0018367449277728e+04 -999 1.04233329e+00 6.072161883e-02 -1.84048564e-01
 120 3 234820 9.6658999295026229e+02 9.1707022630928827e+02 3.1575202862175770e-13 2.9108259753006331e+02 8.5400614252716457e+02 1.0238815511681096e+04 -999 1.04531576e+00 6.040267949e-02 -1.83478912e-01
 121 3 234820 9.3108682984631105e+02 9.2442018795100694e+02 2.7090751153267446e-13 3.1052733806627475e+02 8.2093220257989617e+02 1.0256465139244450e+04 -999 1.04790351e+00 5.976428407e-02 -1.82150951e-01
 122 3 234820 9.3521490240726973e+02 9.2176164354208356e+02 3.0557875764024452e-13 3.3817314134931945e+02 8.2541791400636635e+02 1.0343872339940348e+04 -999 1.05205080e+00 5.910158099e-02 -1.80771385e-01
 123 3 234820 9.6620329795162502e+02 8.9164201895966630e+02 3.5749942364518041e-13 3.5083199376716021e+02 8.5734543137608875e+02 1.1348598484472432e+04 -999 1.05958065e+00 5.857031085e-02 -1.79829996e-01
 124 3 234820 9.5204230561758050e+02 8.8382419700659523e+02 3.6600023278405152e-13 3.4647431296553503e+02 8.4102161259991340e+02 1.0624708780564491e+04 -999 1.06253249e+00 5.861186568e-02 -1.80093838e-01
 125 3 234820 9.4408098428309734e+02 8.7633349433627200e+02 3.7899929110548742e-13 3.4288047770682749e+02 8.3080618281560191e+02 1.1292917735780158e+04 -999 1.06561802e+00 5.862797702e-02 -1.80308154e-01
 126 3 234820 9.1919567174087501e+02 8.6447133195296851e+02 3.1086149987559394e-13 3.3065754196273997e+02 8.0405545569779531e+02 1.1498967455013726e+04 -999 1.06874497e+00 5.848456050e-02 -1.80118663e-01
 127 3 234820 9.1031240639337022e+02 8.5406050830874426e+02 2.5659371835333095e-13 3.2642815761616123e+02 7.9408971595116384e+02 1.0714871820831419e+04 -999 1.07204043e+00 5.831639845e-02 -1.79903415e-01
 128 3 234820 9.1281083238527788e+02 8.4533051514640499e+02 2.1979779008376869e-13 3.2575504806430524e+02 7.9828315433475996e+02 1.2073202771157134e+04 -999 1.07523738e+00 5.812491357e-02 -1.79679603e-01
 129 3 234820 9.1558336567711194e+02 8.4214929447257748e+02 2.0270413830214820e-13 3.2821072683825338e+02 8.0451471113994819e+02 1.0035175967996149e+04 -999 1.07767494e+00 5.802080264e-02 -1.79662756e-01
 130 3 234820 9.2632418495484728e+02 8.4447307180250050e+02 1.9265803090808326e-13 3.2872434925530052e+02 8.1776004092082087e+02 1.1123813336894704e+04 -999 1.07998253e+00 5.798952456e-02 -1.79837335e-01
 131 3 234820 8.8401151774307641e+02 8.2724918488550782e+02 1.5628856017378759e-13 3.2798611008737686e+02 7.7698528932833153e+02 1.1226166905532938e+04 -999 1.08274845e+00 5.785325502e-02 -1.79735153e-01
 132 3 234820 8.7446948301277951e+02 8.1305103775510645e+02 1.3550839183497351e-13 3.2092267745856094e+02 7.6639822656843887e+02 1.0486115112173264e+04 -999 1.08624379e+00 5.780678164e-02 -1.79846816e-01
 133 3 234820 8.8228474485484480e+02 8.0610522241316733e+02 1.2826775222167205e-13 3.1684759400066849e+02 7.7318090396122955e+02 1.0499530455083235e+04 -999 1.08994493e+00 5.777910574e-02 -1.80023540e-01
 134 3 234820 8.8704300028356863e+02 8.0291501704258121e+02 1.2885190032931137e-13 3.1402395099561983e+02 7.7907528366860890e+02 1.0107397296940566e+04 -999 1.09238097e+00 5.777464388e-02 -1.80201701e-01
 135 3 234820 9.0414016402950699e+02 8.1139336764146026e+02 1.3188932608237431e-13 3.0993631882152397e+02 7.9679382350788626e+02 1.1304574400175599e+04 -999 1.09490712e+00 5.777074759e-02 -1.80390781e-01
 136 3 234820 8.7634950788607455e+02 8.0055929308581710e+02 1.1948653841321570e-13 3.0537058485755819e+02 7.6922512153166247e+02 1.1091288429003755e+04 -999 1.09633410e+00 5.773946946e-02 -1.80433162e-01
 137 3 234820 8.5903602756012356e+02 7.8919809153393442e+02 1.2071406541343578e-13 2.9874288933236733e+02 7.5164478681289643e+02 1.0986368670251608e+04 -999 1.09822625e+00 5.772699758e-02 -1.80548312e-01
 138 3 234820 8.5362800216662231e+02 7.7694076913837409e+02 1.3529493854036594e-13 2.9119042606064914e+02 7.4663697052001623e+02 1.0832560115186558e+04 -999 1.10073786e+00 5.774515027e-02 -1.80773589e-01
 139 3 234820 8.5994609422390897e+02 7.6820919565359407e+02 1.5067390446495914e-13 2.8621426112261042e+02 7.5322588151575155e+02 1.0961007036013785e+04 -999 1.10319490e+00 5.779563915e-02 -1.81066693e-01
 140 3 234820 8.6064435854075566e+02 7.6382457264052255e+02 1.6024689356034347e-13 2.8398355004769519e+02 7.5520457458224359e+02 1.0202703313875407e+04 -999 1.10480436e+00 5.783366823e-02 -1.81266991e-01
 141 3 234820 8.2498465837195704e+02 7.5734176039047406e+02 1.3786921476676381e-13 2.8679714052946593e+02 7.2073430827671677e+02 1.0381547669505397e+04 -999 1.10609080e+00 5.777842432e-02 -1.81243005e-01