TITLE = "005.01 ALPHA 3.10 GRIDLEVEL 6"

VARIABLES = "ITERATION"  "GRID_LEVEL"  "GRID_SIZE"  "CONTINUITY"  "MOMENTUMX"  "MOMENTUMY"  "MOMENTUMZ"  "ENERGY"  "TURB1"  "TURB2"  "CL_TOT"  "CD_TOT"  "CM_TOT"

DATASETAUXDATA ParticipantID   = "005"
DATASETAUXDATA SubmissionDate  = "10-31-2024"
DATASETAUXDATA Name            = "Jeffrey A. Housman"
DATASETAUXDATA Email           = "jeffrey.a.housman@nasa.gov"
DATASETAUXDATA Institution     = "NASA Ames Research Center"
DATASETAUXDATA SolverName      = "LAVA Curvilinear"
DATASETAUXDATA BasicAlgorithm  = "RANS"
DATASETAUXDATA TurbulenceModel = "SA-neg"
DATASETAUXDATA GridId          = "Multiblock"
DATASETAUXDATA Discretization  = "Finite difference"
DATASETAUXDATA Order           = "2"
DATASETAUXDATA DistanceCalc    = "Exact"
DATASETAUXDATA Notes           = " "

ZONE T = "005.01 - Alpha 3.10 - Grid Level 6"
AUXDATA Tstatic         = "271.0"
AUXDATA Deltat          = "-999"
AUXDATA GridFileName    = "ONERA-OAT15A_230mmChord_780mmSpan_upZ_2024_06_25-Structured_23mm_Level-6.x"
AUXDATA Misc            = " "
 0 6 1281933 6.2007532754260558e+05 2.2317157057542489e+06 1.0839306084067817e-13 6.2933057319882757e+05 6.7092086360600451e+05 3.9261469084238876e+06 -999 1.82161660e-02 1.052682589e+00 -1.05912257e-02
 1 6 1281933 9.4667415082300827e+05 1.6298707774942233e+06 9.0823657783098247e-14 4.6455103420407715e+05 9.2434541890073940e+05 2.5542493025581772e+06 -999 4.95998385e-02 9.452129739e-01 -2.37734867e-02
 2 6 1281933 1.1635307982023545e+06 1.3678269463923911e+06 7.8084384044248521e-14 5.0771335373031412e+05 1.1183213903348355e+06 1.6691934967839567e+06 -999 8.91527419e-02 8.798008694e-01 -4.03134489e-02
 3 6 1281933 1.3491893498200250e+06 1.2083672724399134e+06 6.8506727413389550e-14 6.0677485735640337e+05 1.2956182235843372e+06 1.0972029581704268e+06 -999 1.26330240e-01 8.353660058e-01 -5.58755977e-02
 4 6 1281933 1.5009266017560135e+06 1.1002935864270488e+06 6.1134356102823398e-14 7.2688437628910248e+05 1.4571094762980626e+06 7.1567381931935996e+05 -999 1.59553252e-01 8.036257958e-01 -6.84210219e-02
 5 6 1281933 1.6638268813264545e+06 1.0976496645090464e+06 5.5374802654921754e-14 8.5051687493701011e+05 1.6600657063870404e+06 4.6355759286973934e+05 -999 1.84490837e-01 7.782392982e-01 -7.78136881e-02
 6 6 1281933 1.5047945757297117e+06 1.1007741353510686e+06 5.0945293979886144e-14 8.8129371492393152e+05 1.5046323273935230e+06 2.7818150192486099e+05 -999 2.01846393e-01 7.486388325e-01 -8.50197688e-02
 7 6 1281933 1.5311254734775645e+06 1.0948914428260084e+06 4.6816169773245995e-14 9.1410811102772190e+05 1.5310812313414949e+06 1.5885978154269524e+05 -999 2.16778534e-01 7.170147106e-01 -9.16223364e-02
 8 6 1281933 1.6147670844518440e+06 1.0480064497553062e+06 4.3769731613367769e-14 9.4184248486759490e+05 1.6320889936025315e+06 1.2459092019291472e+05 -999 2.27978897e-01 6.881870897e-01 -9.63666882e-02
 9 6 1281933 1.8454250502941215e+06 1.0945742240690556e+06 4.1485961605501399e-14 9.9817759983808256e+05 1.9318089804299090e+06 1.0672955677064986e+05 -999 2.36715561e-01 6.622272891e-01 -9.98382822e-02
 10 6 1281933 1.8685962296352338e+06 1.0262553485738024e+06 3.9833741488220607e-14 1.0166136733074244e+06 1.9426345681620694e+06 9.4962306745297989e+04 -999 2.42970494e-01 6.417006912e-01 -1.02296079e-01
 11 6 1281933 1.7363334781265496e+06 1.0415843648272863e+06 3.8322984591207300e-14 9.8599418117120478e+05 1.8071848707784780e+06 8.6647072117854579e+04 -999 2.48075171e-01 6.236842344e-01 -1.04354966e-01
 12 6 1281933 1.6046367070655895e+06 9.3472578060560394e+05 3.6638299952391701e-14 9.5729590035593638e+05 1.6279208636964436e+06 7.9982599746262174e+04 -999 2.53484806e-01 6.033577456e-01 -1.06440067e-01
 13 6 1281933 1.6415804206157515e+06 9.8206762499253161e+05 3.5326928697672867e-14 9.6494981772342138e+05 1.6793334685443596e+06 7.4481016507431574e+04 -999 2.57574177e-01 5.867148934e-01 -1.08000592e-01
 14 6 1281933 1.9015562936257464e+06 1.0825873623030835e+06 3.4192890105255332e-14 1.0294813995942333e+06 2.0106514513936760e+06 6.9797578249861937e+04 -999 2.61151640e-01 5.710623557e-01 -1.09440982e-01
 15 6 1281933 1.7592675528741316e+06 8.7481477353063505e+05 3.3493313259184095e-14 9.6439392080437508e+05 1.8287002675631468e+06 6.5622921316898020e+04 -999 2.63024105e-01 5.621245100e-01 -1.10249814e-01
 16 6 1281933 1.6292990288766595e+06 8.8961944457512011e+05 3.2577990556158185e-14 9.4277390525698604e+05 1.6773082918608424e+06 6.1892639814106224e+04 -999 2.65007513e-01 5.517134132e-01 -1.11102266e-01
 17 6 1281933 1.5109753460329098e+06 8.7171694768809923e+05 3.1660618998009877e-14 9.0673550230233092e+05 1.5333378528722711e+06 5.8639988110583712e+04 -999 2.66730923e-01 5.416958165e-01 -1.11783474e-01
 18 6 1281933 1.6571694492948954e+06 9.2737456827958440e+05 3.0782503883719706e-14 9.3612225165116391e+05 1.7147480434918480e+06 5.5810203960384024e+04 -999 2.68358443e-01 5.310707450e-01 -1.12352583e-01
 19 6 1281933 1.6252592718226050e+06 8.1253831533200876e+05 3.0197901710863191e-14 9.2036609444620623e+05 1.6661999901605831e+06 5.3241111036606169e+04 -999 2.69361394e-01 5.237404102e-01 -1.12648391e-01
 20 6 1281933 1.7927333037943002e+06 9.3658026024695195e+05 2.9695107545489307e-14 9.3194909620358376e+05 1.8985809042522525e+06 5.0915104086592000e+04 -999 2.70272889e-01 5.166173969e-01 -1.12898454e-01
 21 6 1281933 1.5186124045760480e+06 8.1095194038132974e+05 2.9088275638007754e-14 8.7213707048903464e+05 1.5810976166467310e+06 4.8101843814201682e+04 -999 2.71062344e-01 5.092820103e-01 -1.13103085e-01
 22 6 1281933 1.4148524614311683e+06 8.0427812906931317e+05 2.8530508998187118e-14 8.4181788963979750e+05 1.4382258248157722e+06 4.5647798451442541e+04 -999 2.71800098e-01 5.018623906e-01 -1.13295651e-01
 23 6 1281933 1.4794642677030906e+06 7.7528616598149459e+05 2.8065341106073765e-14 8.4700050771559624e+05 1.5114209880376684e+06 4.3486141218508099e+04 -999 2.72490032e-01 4.943465535e-01 -1.13484152e-01
 24 6 1281933 1.5190665666282200e+06 7.5890343003422685e+05 2.7725927401873627e-14 8.3302540018952463e+05 1.5773292676689883e+06 4.1561336925007927e+04 -999 2.72962815e-01 4.887292754e-01 -1.13619795e-01
 25 6 1281933 1.7462694173422323e+06 9.8162676023381832e+05 2.7443879953575659e-14 8.8755628094143094e+05 1.8789490407351733e+06 3.9854196069006823e+04 -999 2.73448299e-01 4.826324518e-01 -1.13763306e-01
 26 6 1281933 1.4660218321005169e+06 8.3710997950147756e+05 2.6995857901929553e-14 8.0836354786706727e+05 1.5617464042250263e+06 3.7763841557800290e+04 -999 2.73783466e-01 4.776436474e-01 -1.13859403e-01
 27 6 1281933 1.2984559274070838e+06 7.2366219182847638e+05 2.6558754610121927e-14 7.6232327192212269e+05 1.3329629597109668e+06 3.5874043612711685e+04 -999 2.74154967e-01 4.720097826e-01 -1.13965910e-01
 28 6 1281933 1.3117466323518686e+06 7.0358093934806355e+05 2.6207652564635368e-14 7.5058885745942150e+05 1.3381496916305034e+06 3.4198117985368350e+04 -999 2.74518729e-01 4.663808266e-01 -1.14067835e-01
 29 6 1281933 1.3981135053174400e+06 7.1619048659401131e+05 2.5996408979836737e-14 7.4777705630333966e+05 1.4649206382703113e+06 3.2705503348472746e+04 -999 2.74808695e-01 4.618461223e-01 -1.14147053e-01
 30 6 1281933 1.5982354597605781e+06 9.0437771725143353e+05 2.5825188550078241e-14 7.8943342595434433e+05 1.7275875229801629e+06 3.1372386354548224e+04 -999 2.75102965e-01 4.572289506e-01 -1.14226749e-01
 31 6 1281933 1.3343746885622300e+06 7.6893543866513832e+05 2.5446541544657538e-14 7.1886211184898810e+05 1.4333317486396616e+06 2.9782028676970254e+04 -999 2.75323598e-01 4.532561031e-01 -1.14283372e-01
 32 6 1281933 1.1544396366810822e+06 6.5061636708579876e+05 2.5042854022641968e-14 6.6953589415164862e+05 1.1950859916279032e+06 2.8346503631818101e+04 -999 2.75569764e-01 4.488052619e-01 -1.14347931e-01
 33 6 1281933 1.1654642432245372e+06 6.3476691832450428e+05 2.4690540480339318e-14 6.5386100816422538e+05 1.1937322643205004e+06 2.7031756910761138e+04 -999 2.75834923e-01 4.439864330e-01 -1.14419585e-01
 34 6 1281933 1.2428172670244123e+06 6.2218556552127539e+05 2.4490014806708261e-14 6.5531861148409976e+05 1.2960005323683133e+06 2.5853464113606915e+04 -999 2.76047046e-01 4.401072070e-01 -1.14478901e-01
 35 6 1281933 1.3517133475624614e+06 7.1540082173795870e+05 2.4394153923634605e-14 6.6312701202102646e+05 1.4523768866633505e+06 2.4793349228492520e+04 -999 2.76225822e-01 4.368169611e-01 -1.14530224e-01
 36 6 1281933 1.1509971530695122e+06 6.1691265434738819e+05 2.4132192355117914e-14 6.1461750044717011e+05 1.2300922967678343e+06 2.3497774315378414e+04 -999 2.76386413e-01 4.334712555e-01 -1.14575085e-01
 37 6 1281933 9.9134449538314086e+05 5.6195182001009700e+05 2.3852307992512147e-14 5.7003316618643922e+05 1.0265189651147703e+06 2.2335767500035683e+04 -999 2.76578551e-01 4.295187600e-01 -1.14630041e-01
 38 6 1281933 9.8098711847179686e+05 5.4005124436133250e+05 2.3676349427438719e-14 5.4898162805767066e+05 1.0003861108744112e+06 2.1292930341464998e+04 -999 2.76775936e-01 4.255158651e-01 -1.14687798e-01
 39 6 1281933 1.0828752579722654e+06 5.7055877659837354e+05 2.3640851447015648e-14 5.5127480818814412e+05 1.1359459507307352e+06 2.0346144109800091e+04 -999 2.76946316e-01 4.221112559e-01 -1.14738511e-01
 40 6 1281933 1.2270965691707935e+06 6.8215617394377093e+05 2.3702943493070951e-14 5.7281154149919690e+05 1.3253336917642062e+06 1.9485091161877197e+04 -999 2.77103391e-01 4.190093289e-01 -1.14785736e-01
 41 6 1281933 1.0256223196357536e+06 5.7618524856150220e+05 2.3431741596240560e-14 5.2306951510946109e+05 1.1089771618142317e+06 1.8480753916208607e+04 -999 2.77232460e-01 4.161986480e-01 -1.14822765e-01
 42 6 1281933 8.5686800638831116e+05 4.8686190655248880e+05 2.3120958309547212e-14 4.8033553798756743e+05 8.9560671582676622e+05 1.7574781274821467e+04 -999 2.77386902e-01 4.129185662e-01 -1.14867540e-01
 43 6 1281933 8.2897939131656382e+05 4.6204687519493222e+05 2.2849762487523048e-14 4.5782358813376975e+05 8.4220897551370121e+05 1.6761700810547838e+04 -999 2.77558830e-01 4.093629870e-01 -1.14917887e-01
 44 6 1281933 9.1032647538036120e+05 4.7890955820706504e+05 2.2727073580672830e-14 4.5730295758876816e+05 9.4829365712702891e+05 1.6029324199458886e+04 -999 2.77707971e-01 4.063557797e-01 -1.14961954e-01
 45 6 1281933 1.0122891727449845e+06 5.5582936010053917e+05 2.2702979873778535e-14 4.6646022859024792e+05 1.0893410797986188e+06 1.5360285932797366e+04 -999 2.77834238e-01 4.038554577e-01 -1.14999518e-01
 46 6 1281933 8.6013641570615314e+05 4.6691388227091322e+05 2.2481688438707046e-14 4.2986516667595063e+05 9.2780419133684691e+05 1.4518077297013479e+04 -999 2.77946789e-01 4.014324450e-01 -1.15031534e-01
 47 6 1281933 7.1512838520847750e+05 4.0785529431481427e+05 2.2210667889023178e-14 3.9385286212347954e+05 7.5086560495054221e+05 1.3756502708630769e+04 -999 2.78084903e-01 3.985326296e-01 -1.15071340e-01
 48 6 1281933 6.7296874682849168e+05 3.7515740398802917e+05 2.1976527053841387e-14 3.7034539586964517e+05 6.8133140458003664e+05 1.3075859179090467e+04 -999 2.78237298e-01 3.954171869e-01 -1.15115877e-01
 49 6 1281933 7.3277593996481108e+05 3.8716319946418807e+05 2.1873285356209385e-14 3.6589503866508952e+05 7.5510262042947230e+05 1.2465042767259965e+04 -999 2.78377760e-01 3.926161002e-01 -1.15157469e-01
 50 6 1281933 8.1615906798546691e+05 4.4204524810160534e+05 2.1883847694725249e-14 3.7108842258484924e+05 8.6920426187247247e+05 1.1910759090367261e+04 -999 2.78498619e-01 3.902509473e-01 -1.15193654e-01
 51 6 1281933 6.9545690131363610e+05 3.7379772214465175e+05 2.1696193283201512e-14 3.4186984562962432e+05 7.4655788295337395e+05 1.1206575176558730e+04 -999 2.78605670e-01 3.879997120e-01 -1.15224616e-01
 52 6 1281933 5.7637265369932167e+05 3.2603905793276156e+05 2.1469093023947559e-14 3.1253909280463296e+05 6.0722829219859152e+05 1.0573869438542180e+04 -999 2.78733640e-01 3.853742608e-01 -1.15262130e-01
 53 6 1281933 5.3170969264260714e+05 2.9938769500975474e+05 2.1265057992484377e-14 2.9109429189986148e+05 5.3940141890652047e+05 1.0004312572115259e+04 -999 2.78878730e-01 3.824751783e-01 -1.15305243e-01
 54 6 1281933 5.7143841639744723e+05 3.0231609352938726e+05 2.1179682584537321e-14 2.8415925031519128e+05 5.8529362909413874e+05 9.4917875378478529e+03 -999 2.79017984e-01 3.797653729e-01 -1.15347171e-01
 55 6 1281933 6.3140859038566542e+05 3.3868665034730482e+05 2.1207057370860609e-14 2.8547077609402756e+05 6.6738132762176567e+05 9.0359795491437562e+03 -999 2.79141303e-01 3.774177938e-01 -1.15384769e-01
 56 6 1281933 5.4228237305537437e+05 2.9150722411329753e+05 2.1018688438153874e-14 2.6386461828906956e+05 5.7969545682140032e+05 8.4598626038988186e+03 -999 2.79245970e-01 3.753129863e-01 -1.15415992e-01
 57 6 1281933 4.4736943562465813e+05 2.5376788431990842e+05 2.0782046732232243e-14 2.3915615533271804e+05 4.7324110898860398e+05 7.9383988529994258e+03 -999 2.79376996e-01 3.727825426e-01 -1.15455253e-01
 58 6 1281933 4.0449557303345215e+05 2.3024774446496289e+05 2.0563201823079906e-14 2.1941217008374725e+05 4.1314324080644263e+05 7.4652992293657571e+03 -999 2.79526489e-01 3.699676722e-01 -1.15500781e-01
 59 6 1281933 4.2281833194607642e+05 2.2803228906041954e+05 2.0464690074368104e-14 2.1022231425127474e+05 4.3175927225884545e+05 7.0507795137123730e+03 -999 2.79671254e-01 3.673100070e-01 -1.15545679e-01
 60 6 1281933 4.5427862207937933e+05 2.4081919544069457e+05 2.0491463537760854e-14 2.0705094079536680e+05 4.7428515240418550e+05 6.6876450320788281e+03 -999 2.79801497e-01 3.649667548e-01 -1.15586912e-01
 61 6 1281933 3.9274923641604371e+05 2.1366811595032286e+05 2.0306992581426635e-14 1.9115066425576070e+05 4.1634875487940060e+05 6.1866464785980215e+03 -999 2.79912258e-01 3.628924371e-01 -1.15621856e-01
 62 6 1281933 3.2512293256815412e+05 1.8895080160526914e+05 2.0069911850595885e-14 1.7342604158273732e+05 3.4405185477014672e+05 5.7590368215594099e+03 -999 2.80046264e-01 3.604258508e-01 -1.15664707e-01
 63 6 1281933 2.8853725624725316e+05 1.7075855412702926e+05 1.9838814478471178e-14 1.5765178357739994e+05 2.9693362849513459e+05 5.3757974906997279e+03 -999 2.80202420e-01 3.576042152e-01 -1.15715394e-01
 64 6 1281933 2.9258089854891039e+05 1.6540600249921042e+05 1.9707941551145412e-14 1.4858976046445253e+05 2.9908181637032435e+05 5.0393578146426207e+03 -999 2.80354390e-01 3.549058399e-01 -1.15765687e-01
 65 6 1281933 3.0489086479292222e+05 1.6737550959870036e+05 1.9705287576347869e-14 1.4353015298293860e+05 3.1590963814551389e+05 4.7473929143160967e+03 -999 2.80491156e-01 3.525051306e-01 -1.15812136e-01
 66 6 1281933 2.6495611222128227e+05 1.5186725689094781e+05 1.9528516220781182e-14 1.3288357324221305e+05 2.7885525496934704e+05 4.3451754440438581e+03 -999 2.80603133e-01 3.504303116e-01 -1.15849824e-01
 67 6 1281933 2.1937743414545024e+05 1.3687350558981061e+05 1.9306960540409763e-14 1.2061144870587339e+05 2.3158345894037207e+05 4.0058048161159613e+03 -999 2.80738708e-01 3.479403141e-01 -1.15895833e-01
 68 6 1281933 1.9064466228831565e+05 1.2471750271241640e+05 1.9063830620405154e-14 1.0880850260006903e+05 1.9712051258727926e+05 3.7227470497472414e+03 -999 2.80897836e-01 3.450443445e-01 -1.15950432e-01
 69 6 1281933 1.8657551436471290e+05 1.1889439469313412e+05 1.8925863505532327e-14 1.0086547658003966e+05 1.9120649207344194e+05 3.4508751507021543e+03 -999 2.81052822e-01 3.422447290e-01 -1.16004704e-01
 70 6 1281933 1.8761292602627439e+05 1.1605245031432722e+05 1.8911910074086842e-14 9.5445201712594542e+04 1.9343840718058514e+05 3.2271892169968382e+03 -999 2.81192389e-01 3.397290214e-01 -1.16055308e-01
 71 6 1281933 1.6368026579256568e+05 1.0746844039174187e+05 1.8733887781817864e-14 8.8661119274836921e+04 1.7124020313434003e+05 2.9414689566097304e+03 -999 2.81301016e-01 3.376170855e-01 -1.16093546e-01
 72 6 1281933 1.3553286082465397e+05 9.8672606607433467e+04 1.8506765875747213e-14 8.0628247474110176e+04 1.4250400179643196e+05 2.6922731650220599e+03 -999 2.81432876e-01 3.350628588e-01 -1.16140212e-01
 73 6 1281933 1.1503556476815676e+05 9.0742763921853970e+04 1.8246542602531857e-14 7.2288791459849628e+04 1.1915629233929954e+05 2.4765038331372461e+03 -999 2.81589298e-01 3.320443928e-01 -1.16196171e-01
 74 6 1281933 1.0775531511083900e+05 8.5555306560997837e+04 1.8069893599602221e-14 6.5864744050598092e+04 1.1057496964279134e+05 2.2941691489764999e+03 -999 2.81741965e-01 3.291035789e-01 -1.16252297e-01
 75 6 1281933 1.0371147011812634e+05 8.1721784620403283e+04 1.8013152387641554e-14 6.0940372593360415e+04 1.0646178494696625e+05 2.1393362021759390e+03 -999 2.81879545e-01 3.264438649e-01 -1.16305513e-01
 76 6 1281933 9.0669883903997004e+04 7.6748625072011026e+04 1.7846044714976306e-14 5.5624028778571403e+04 9.4147342687309341e+04 1.9301877847902983e+03 -999 2.81981792e-01 3.241953021e-01 -1.16341694e-01
 77 6 1281933 7.5047156381081790e+04 7.1343237062455315e+04 1.7619129543312592e-14 4.9442049143756849e+04 7.8236899584848405e+04 1.7582617262118581e+03 -999 2.82106327e-01 3.214407827e-01 -1.16385687e-01
 78 6 1281933 6.2149280331214184e+04 6.5932917155547591e+04 1.7339224319242636e-14 4.2870558670342813e+04 6.4043182341402375e+04 1.6203061616774669e+03 -999 2.82255351e-01 3.181183896e-01 -1.16438649e-01
 79 6 1281933 5.5301077658641152e+04 6.1703231385115774e+04 1.7118466022154605e-14 3.7567373152190579e+04 5.6459531297038578e+04 1.5108738443343746e+03 -999 2.82400404e-01 3.148349245e-01 -1.16491887e-01
 80 6 1281933 5.0530731144211757e+04 5.8309862047254239e+04 1.6986835748835340e-14 3.3503035292683737e+04 5.1377944946393225e+04 1.4228911082874017e+03 -999 2.82530396e-01 3.118146680e-01 -1.16543021e-01
 81 6 1281933 4.3900366835247536e+04 5.5013128138309839e+04 1.6801458808309950e-14 3.0378297641631048e+04 4.4964569136116792e+04 1.2949550930268563e+03 -999 2.82612606e-01 3.090629395e-01 -1.16563864e-01
 82 6 1281933 3.6109670773644299e+04 5.1331232748625618e+04 1.6572122886122212e-14 2.6819092336245572e+04 3.7064521057118895e+04 1.2220741248479926e+03 -999 2.82709321e-01 3.055954638e-01 -1.16584819e-01
 83 6 1281933 2.9378686847573510e+04 4.7525779975786070e+04 1.6266695796699480e-14 2.3154341107404976e+04 2.9977516613633736e+04 1.2248021547844544e+03 -999 2.82819628e-01 3.012833568e-01 -1.16603636e-01
 84 6 1281933 2.5484715145211001e+04 4.4480356534059487e+04 1.5992312473477480e-14 2.0425228717545942e+04 2.5982348829907194e+04 1.3095099142338609e+03 -999 2.82919281e-01 2.969153291e-01 -1.16616046e-01
 85 6 1281933 2.3129960252451005e+04 4.2138343244299496e+04 1.5767069870681974e-14 1.8606438044925555e+04 2.3709299992035347e+04 1.4900927149257670e+03 -999 2.83003023e-01 2.927476001e-01 -1.16624406e-01
 86 6 1281933 2.0308898745050206e+04 3.9619816811305856e+04 1.5548774904671628e-14 1.6925902485276303e+04 2.1191854636256106e+04 1.9323110508185907e+03 -999 2.83060934e-01 2.881163903e-01 -1.16565689e-01
 87 6 1281933 1.7639045548746159e+04 3.6825117924433413e+04 1.5236361384640151e-14 1.5274249035109804e+04 1.8890473728695495e+04 2.6230681699608572e+03 -999 2.83178547e-01 2.819752301e-01 -1.16485190e-01
 88 6 1281933 1.6282410160523217e+04 3.4232578740991092e+04 1.4863642928197224e-14 1.4027992912824126e+04 1.8011423553458069e+04 3.7612889078263138e+03 -999 2.83422808e-01 2.741273160e-01 -1.16390773e-01
 89 6 1281933 1.6202393758492890e+04 3.2597616797505085e+04 1.4547673478033159e-14 1.3461749738428163e+04 1.8355498518719975e+04 7.9553530663420406e+03 -999 2.83779337e-01 2.660021676e-01 -1.16335790e-01
 90 6 1281933 1.6575102935488034e+04 3.1842344594865444e+04 1.4429319687708696e-14 1.3395612625482057e+04 1.9040707352815793e+04 2.0656502858562722e+04 -999 2.84218517e-01 2.578666166e-01 -1.16364829e-01
 91 6 1281933 1.5882926250317165e+04 2.9214840982832484e+04 1.4029928437119796e-14 1.2720530215166746e+04 1.8456487480626671e+04 8.6577028704423952e+04 -999 2.85000707e-01 2.459586089e-01 -1.16642858e-01
 92 6 1281933 1.6345050528861964e+04 2.7709132403748124e+04 1.3912387735749763e-14 1.2433328959752123e+04 1.8905491170154968e+04 2.1760317744518488e+05 -999 2.86103048e-01 2.285525473e-01 -1.17401468e-01
 93 6 1281933 1.7431934288549211e+04 3.7031489144097482e+04 1.4023724181824181e-14 1.2627966916155747e+04 2.1723433835623513e+04 3.9902808503271901e+05 -999 2.87062090e-01 2.071012441e-01 -1.19007109e-01
 94 6 1281933 1.7255283512251433e+04 3.8331939487242576e+04 1.3602420906233380e-14 1.2541821681162255e+04 2.3872877657675512e+04 2.0427962844417192e+05 -999 2.87033671e-01 2.024039794e-01 -1.19490388e-01
 95 6 1281933 1.7215722155452750e+04 4.2637098407950201e+04 1.3413386136523898e-14 1.3176340686106892e+04 2.8008634023145532e+04 5.9124151785978791e+05 -999 2.86950431e-01 1.989873165e-01 -1.19850445e-01
 96 6 1281933 1.6453433092191353e+04 2.1481042397304387e+04 1.3030032717475851e-14 1.1535943025622768e+04 1.8067579248339702e+04 6.1978907529035246e+05 -999 2.86796665e-01 1.760525292e-01 -1.22279072e-01
 97 6 1281933 1.5793560715648007e+04 2.1425700805351829e+04 1.2246986515910316e-14 1.0762032276984159e+04 1.6879389787156902e+04 5.2481134884555871e+05 -999 2.84822108e-01 1.557819746e-01 -1.24640428e-01
 98 6 1281933 1.5278191719166000e+04 4.4929957921507674e+04 1.1076147487043409e-14 1.0539418853765250e+04 1.8447485027236151e+04 8.7341362323175871e+05 -999 2.81302807e-01 1.417318380e-01 -1.25913931e-01
 99 6 1281933 1.5100181888770136e+04 5.8334327761151959e+04 1.0447572731532942e-14 1.0470106629810265e+04 2.0004560625343518e+04 4.2009126355451456e+05 -999 2.80558853e-01 1.399729965e-01 -1.25980857e-01
 100 6 1281933 1.4998711334490306e+04 6.3371690416344463e+04 1.0252811918211722e-14 1.0499417561092545e+04 2.1173017129479151e+04 4.1598073068897537e+05 -999 2.80191171e-01 1.391498257e-01 -1.26004062e-01
 101 6 1281933 1.4115692098531732e+04 2.3738529833724875e+04 1.0618737510053283e-14 8.9781463708765477e+03 1.4626970061630489e+04 1.3886731171752428e+05 -999 2.74256728e-01 1.255093608e-01 -1.26424881e-01
 102 6 1281933 1.2999927988820795e+04 2.2440790162922622e+04 1.0286333240548145e-14 8.2593154399916784e+03 1.3495387887419130e+04 8.8619481196010340e+04 -999 2.69004611e-01 1.176384001e-01 -1.26037977e-01
 103 6 1281933 1.2390378916069851e+04 2.1192429001211167e+04 1.0039532835041217e-14 7.8932589521583977e+03 1.2802693651306943e+04 6.4701907428543571e+04 -999 2.65702749e-01 1.131557011e-01 -1.25508650e-01
 104 6 1281933 1.2183881566895137e+04 1.9795532462403640e+04 1.0746075703941706e-14 7.4844135862859885e+03 1.2409554343259893e+04 5.2909372078804248e+04 -999 2.62860541e-01 1.092150262e-01 -1.24883889e-01
 105 6 1281933 1.1837447499862812e+04 1.9117146993097176e+04 1.1219497397759405e-14 7.2588400223524595e+03 1.2105048774200188e+04 4.5740821050098559e+04 -999 2.61695586e-01 1.074102665e-01 -1.24553307e-01
 106 6 1281933 1.0539859322419399e+04 1.6480829718804671e+04 1.2208197807550970e-13 6.2908225614947878e+03 1.0586387467507060e+04 3.4313843746296967e+04 -999 2.63198024e-01 1.028996860e-01 -1.24447999e-01
 107 6 1281933 9.3527784543258040e+03 1.3477031534127758e+04 2.4917771752016368e-13 5.6314679138198044e+03 9.0848135958606945e+03 3.7654304833399037e+04 -999 2.69321248e-01 9.681094026e-02 -1.25551218e-01
 108 6 1281933 9.1743824708013453e+03 1.2786757407986464e+04 3.1573050393975276e-13 5.6692836130257965e+03 8.7713994735220294e+03 1.0088798408575467e+05 -999 2.81962684e-01 9.157995644e-02 -1.28832781e-01
 109 6 1281933 9.1591482232765411e+03 1.2803525706952054e+04 3.2368972314749767e-13 5.5418976752241924e+03 8.8173634565586308e+03 7.8856681583617639e+04 -999 2.90403437e-01 8.975179800e-02 -1.31371304e-01
 110 6 1281933 8.8533758983249809e+03 1.2980627641913170e+04 3.2575638411290441e-13 5.4427692849229325e+03 8.6140429711520901e+03 1.7532085686089378e+05 -999 2.99003545e-01 8.823269326e-02 -1.34062153e-01
 111 6 1281933 6.8166315080103841e+03 9.4651284638444031e+03 4.1376494948351553e-12 4.2297187029722736e+03 6.3986907251832854e+03 1.3490443121799437e+05 -999 3.24381496e-01 8.492422714e-02 -1.42208545e-01
 112 6 1281933 5.6127492325020257e+03 7.3653759838160931e+03 5.6628603681249051e-12 3.3035229737275331e+03 5.3585319555598498e+03 1.8383365329304550e+05 -999 3.61026306e-01 8.130381447e-02 -1.54250465e-01
 113 6 1281933 4.8873519401625326e+03 6.9011492377717486e+03 4.4752549176683529e-12 2.6896610800176941e+03 5.0173491140600599e+03 1.6729042719972797e+05 -999 4.10947750e-01 7.721717295e-02 -1.70404106e-01
 114 6 1281933 4.3724227766238810e+03 7.3814264694556541e+03 2.9208042014551628e-12 2.4382768718391940e+03 5.5403589784908245e+03 1.2298134456497882e+05 -999 4.50003374e-01 7.415801843e-02 -1.81840219e-01
 115 6 1281933 4.0401689965256714e+03 5.4938850503927215e+03 2.2652717905997502e-12 2.0088880455195329e+03 4.8762311672578026e+03 1.7410292069159317e+05 -999 4.75924230e-01 7.208104088e-02 -1.88361507e-01
 116 6 1281933 3.2501782430481003e+03 3.6378734004390653e+03 1.6886047616715581e-11 1.2168100836598314e+03 3.1026675640643548e+03 1.2039506504391207e+05 -999 5.55395595e-01 6.688782160e-02 -2.02727124e-01
 117 6 1281933 2.9852942327138185e+03 3.2869949919208011e+03 1.8115308941833116e-11 9.0312225363964706e+02 2.8402826138798259e+03 1.6266789204819570e+05 -999 6.01122419e-01 6.494626235e-02 -2.07212652e-01
 118 6 1281933 2.8667419008923071e+03 3.0933615695606350e+03 1.7863140259088025e-11 7.7206429599444846e+02 2.7204947801662652e+03 8.9495229110392509e+04 -999 6.27160030e-01 6.422198078e-02 -2.08499085e-01
 119 6 1281933 2.8045066552063900e+03 3.0179069287859711e+03 1.8848282621436695e-11 7.2129185870698564e+02 2.6556224997454133e+03 8.9027295663143115e+04 -999 6.42381331e-01 6.392074670e-02 -2.08843006e-01
 120 6 1281933 2.7649899916398363e+03 2.9751464348254135e+03 2.5735153208128384e-11 6.9316546771841149e+02 2.6135420372881290e+03 6.5274561178199263e+04 -999 6.54409150e-01 6.372946019e-02 -2.08929939e-01
 121 6 1281933 2.5539092545511962e+03 2.8886706888889630e+03 4.2852053327426200e-11 6.4254201469160978e+02 2.4020202905127089e+03 3.0422496149295275e+04 -999 6.82538192e-01 6.399567508e-02 -2.08578940e-01
 122 6 1281933 2.4145121863152472e+03 2.7183175967553007e+03 3.2049301540990330e-11 5.8339458811630743e+02 2.2570585149032449e+03 2.0343175132198696e+04 -999 7.10405246e-01 6.427937144e-02 -2.07678304e-01
 123 6 1281933 2.3468731882361144e+03 2.5719899884541333e+03 1.7439399360394326e-11 5.1753004565587378e+02 2.1798972502744896e+03 1.2850564861769255e+04 -999 7.34913818e-01 6.453912870e-02 -2.06389249e-01
 124 6 1281933 2.3233357427200012e+03 2.5057264159506653e+03 1.5142448528469987e-11 4.9455320311725444e+02 2.1474251130968069e+03 9.0546302896856450e+03 -999 7.50331740e-01 6.470970537e-02 -2.05314179e-01
 125 6 1281933 2.3043096274310160e+03 2.4862063462159094e+03 1.5202966968320634e-11 4.8370419886584381e+02 2.1252408705201801e+03 7.7718878369436070e+03 -999 7.61357428e-01 6.482923386e-02 -2.04442369e-01
 126 6 1281933 2.2473225694770499e+03 2.5628523025974405e+03 1.6315876042575854e-11 5.7049354449083160e+02 2.0727945599717177e+03 7.4229772062757265e+03 -999 7.71623129e-01 6.516058108e-02 -2.04194505e-01
 127 6 1281933 2.2138857880260498e+03 2.7334172024025988e+03 1.7378636194888244e-11 7.7221504815298897e+02 2.0431727765416913e+03 7.6928899773090889e+03 -999 7.83923799e-01 6.554194343e-02 -2.03764189e-01
 128 6 1281933 2.1983220810278685e+03 2.9513520939537798e+03 1.7908845855783395e-11 1.0460418011734598e+03 2.0335477183192390e+03 8.5430169068773903e+03 -999 7.97744981e-01 6.590339431e-02 -2.03213723e-01
 129 6 1281933 2.2209021940719872e+03 3.0192968993907421e+03 1.5787307018056481e-11 1.2105142311819245e+03 2.0493748431653125e+03 8.5384933406358195e+03 -999 8.13208133e-01 6.621394542e-02 -2.02434253e-01
 130 6 1281933 2.2773972970838950e+03 3.1114784557684329e+03 1.4885369054492648e-11 1.3114266493468876e+03 2.0942871713856662e+03 8.6085877003870628e+03 -999 8.24167540e-01 6.635726898e-02 -2.01708145e-01
 131 6 1281933 2.2322300207244216e+03 3.0225323434672123e+03 1.3655295612804578e-11 1.3169070429966787e+03 2.0602091817882720e+03 8.9161388093636051e+03 -999 8.31868823e-01 6.649315586e-02 -2.01366180e-01
 132 6 1281933 2.1970607745496277e+03 2.8926759490184459e+03 1.2110457829045358e-11 1.2882800606861774e+03 2.0318939849776884e+03 9.0895303715615191e+03 -999 8.40794986e-01 6.663980999e-02 -2.00972330e-01
 133 6 1281933 2.1611882569634513e+03 2.7335467475739993e+03 1.0480923798620650e-11 1.1981590858144923e+03 1.9960338434001094e+03 9.3054040544872350e+03 -999 8.50830563e-01 6.677872192e-02 -2.00433903e-01
 134 6 1281933 2.1575631855259012e+03 2.5774330192304360e+03 9.0608256236845225e-12 1.0825109819462702e+03 1.9797505981911606e+03 9.5598336607655601e+03 -999 8.61690287e-01 6.688247262e-02 -1.99697958e-01
 135 6 1281933 2.1607639417817641e+03 2.5313740074355751e+03 8.5691260566188509e-12 1.0337330685027994e+03 1.9752176193021630e+03 9.5289769896507660e+03 -999 8.68509518e-01 6.691066529e-02 -1.99157288e-01
 136 6 1281933 2.1376974041992471e+03 2.5352630689893440e+03 7.9554119727266696e-12 1.0798211575389271e+03 1.9541436418019193e+03 9.8288389717778373e+03 -999 8.73934541e-01 6.694036309e-02 -1.98789708e-01
 137 6 1281933 2.1237940320612292e+03 2.5373744347455122e+03 7.3467717191699898e-12 1.1042479392900914e+03 1.9386934962351231e+03 1.0269037716928104e+04 -999 8.79954272e-01 6.696484086e-02 -1.98340864e-01
 138 6 1281933 2.1101630081924500e+03 2.5276950860873026e+03 6.8261870862739159e-12 1.1122799520324586e+03 1.9235426728614548e+03 1.0534150067657663e+04 -999 8.86782062e-01 6.697228291e-02 -1.97784164e-01
 139 6 1281933 2.1176211413170804e+03 2.5056291746107304e+03 6.4288718850851837e-12 1.1065031084351242e+03 1.9219007282255832e+03 1.1095215242983677e+04 -999 8.94954936e-01 6.694463322e-02 -1.97060609e-01
 140 6 1281933 2.1485737782233145e+03 2.4942780001737920e+03 6.4130532327900650e-12 1.1211736454095922e+03 1.9424207307219929e+03 1.1265502170143473e+04 -999 8.99867937e-01 6.687713163e-02 -1.96539790e-01