TITLE = "005.01 ALPHA 3.40 GRIDLEVEL 4"

VARIABLES = "ITERATION"  "GRID_LEVEL"  "GRID_SIZE"  "CONTINUITY"  "MOMENTUMX"  "MOMENTUMY"  "MOMENTUMZ"  "ENERGY"  "TURB1"  "TURB2"  "CL_TOT"  "CD_TOT"  "CM_TOT"

DATASETAUXDATA ParticipantID   = "005"
DATASETAUXDATA SubmissionDate  = "10-31-2024"
DATASETAUXDATA Name            = "Jeffrey A. Housman"
DATASETAUXDATA Email           = "jeffrey.a.housman@nasa.gov"
DATASETAUXDATA Institution     = "NASA Ames Research Center"
DATASETAUXDATA SolverName      = "LAVA Curvilinear"
DATASETAUXDATA BasicAlgorithm  = "RANS"
DATASETAUXDATA TurbulenceModel = "SA-neg"
DATASETAUXDATA GridId          = "Multiblock"
DATASETAUXDATA Discretization  = "Finite difference"
DATASETAUXDATA Order           = "2"
DATASETAUXDATA DistanceCalc    = "Exact"
DATASETAUXDATA Notes           = " "

ZONE T = "005.01 - Alpha 3.40 - Grid Level 4"
AUXDATA Tstatic         = "271.0"
AUXDATA Deltat          = "-999"
AUXDATA GridFileName    = "ONERA-OAT15A_230mmChord_780mmSpan_upZ_2024_06_25-Structured_23mm_Level-4.x"
AUXDATA Misc            = " "
 0 4 430284 3.7959765864660306e+05 1.0657285746881610e+06 6.4510582397219540e-14 3.6267587515102280e+05 3.9890111650338123e+05 1.7151781415188094e+06 -999 1.42623267e-02 7.531819874e-01 -8.67906557e-03
 1 4 430284 5.4874795329311106e+05 8.1498653885173576e+05 5.5803995843973946e-14 2.8234802897346794e+05 5.3538744233889447e+05 1.1143741703956756e+06 -999 5.17235960e-02 7.039315244e-01 -2.40091016e-02
 2 4 430284 6.6734451136507699e+05 7.0630969606766640e+05 4.9266406585860966e-14 3.1077961133946950e+05 6.4125734636463213e+05 7.2715401425984874e+05 -999 9.58868634e-02 6.785414407e-01 -4.17158382e-02
 3 4 430284 7.7909593723124184e+05 6.3688893367139879e+05 4.4178744441166548e-14 3.6628329309513501e+05 7.4693861874558521e+05 4.7486757737817662e+05 -999 1.35505888e-01 6.641580600e-01 -5.81066263e-02
 4 4 430284 8.8096586347424053e+05 5.8490991751331021e+05 4.0158665086060014e-14 4.3412574900504848e+05 8.5204885780854628e+05 3.0478159868435812e+05 -999 1.70585114e-01 6.565009169e-01 -7.11187544e-02
 5 4 430284 9.8324763962773897e+05 5.8710893482571992e+05 3.6963776447962323e-14 5.0684465212673380e+05 9.6991530628579448e+05 1.9543528403932674e+05 -999 1.97671798e-01 6.513779482e-01 -8.08209148e-02
 6 4 430284 9.0195167592398217e+05 6.2674070739884698e+05 3.4509189889569334e-14 5.3519940766006790e+05 8.9234252669161605e+05 9.9508835656470459e+04 -999 2.16515860e-01 6.400957679e-01 -8.82357486e-02
 7 4 430284 9.2465172260578314e+05 6.4115843208818999e+05 3.2280426899506739e-14 5.5742203452496510e+05 9.1089218341657333e+05 7.9572442037816756e+04 -999 2.31827073e-01 6.255107733e-01 -9.47900565e-02
 8 4 430284 9.8444239267733437e+05 6.3395106132212456e+05 3.0638306784261813e-14 5.6910974894495832e+05 9.9060560556840419e+05 6.8329263798858432e+04 -999 2.43614225e-01 6.091178409e-01 -9.96799506e-02
 9 4 430284 1.1854387786375077e+06 6.8874514296812587e+05 2.9223017452315135e-14 6.2607495459037379e+05 1.2324324834065405e+06 6.0864812697530455e+04 -999 2.55535176e-01 5.890316199e-01 -1.04169955e-01
 10 4 430284 1.1113845706715002e+06 5.8404316208385106e+05 2.8427880049279120e-14 5.9581788058022724e+05 1.1497720286907193e+06 5.4845706297405712e+04 -999 2.61771582e-01 5.772733273e-01 -1.06441752e-01
 11 4 430284 1.0217367919623211e+06 5.7055377769548015e+05 2.7471886803079441e-14 5.8209898672508751e+05 1.0411772167609299e+06 4.9600432025946728e+04 -999 2.69016179e-01 5.628460522e-01 -1.09169406e-01
 12 4 430284 9.5042818639175221e+05 5.7421155757623317e+05 2.6710770524873060e-14 5.5922713548342919e+05 9.6195122217505448e+05 4.5356391634382744e+04 -999 2.74824033e-01 5.504609947e-01 -1.11267060e-01
 13 4 430284 1.0507038148870596e+06 5.8468904553490679e+05 2.6147376182475518e-14 5.8028132967367070e+05 1.0812035090808333e+06 4.2020163722734527e+04 -999 2.80598709e-01 5.369898477e-01 -1.13337225e-01
 14 4 430284 9.8136156609129976e+05 5.1495464408107271e+05 2.5726179516219155e-14 5.4523104380872310e+05 1.0056212863075447e+06 3.9127245253111156e+04 -999 2.83597475e-01 5.290329560e-01 -1.14465237e-01
 15 4 430284 1.1511429584065098e+06 6.5438473272572749e+05 2.5324051424198222e-14 5.8954883510698762e+05 1.2257339705616480e+06 3.6671566424663892e+04 -999 2.86874576e-01 5.196139391e-01 -1.15811001e-01
 16 4 430284 9.7318389338736841e+05 5.7923080028462352e+05 2.4882553654983651e-14 5.3194116549679113e+05 1.0306625570710481e+06 3.3830996279747575e+04 -999 2.88891290e-01 5.127356691e-01 -1.16708191e-01
 17 4 430284 8.6570688291565713e+05 4.8312890551208949e+05 2.4370463893127705e-14 5.0071710853936360e+05 8.7944306389237114e+05 3.1387295988220121e+04 -999 2.91262193e-01 5.038065862e-01 -1.17749652e-01
 18 4 430284 8.2413144716727140e+05 4.7268411163557461e+05 2.3955691734657136e-14 4.7967650055819756e+05 8.3300802348722680e+05 2.9278032702077318e+04 -999 2.92933395e-01 4.965918496e-01 -1.18431146e-01
 19 4 430284 9.5655440953331743e+05 5.1204911764977511e+05 2.3600111196523992e-14 4.9440986621491163e+05 1.0045238305987635e+06 2.7488141136656097e+04 -999 2.94526305e-01 4.890806704e-01 -1.19005236e-01
 20 4 430284 8.7895229239773448e+05 4.1884766955257347e+05 2.3405630196218494e-14 4.6905183739315101e+05 9.1107317624234711e+05 2.5917383094699911e+04 -999 2.95487306e-01 4.841557292e-01 -1.19299584e-01
 21 4 430284 8.0181838853601599e+05 4.2683847327428934e+05 2.3085333049201066e-14 4.4784055026171129e+05 8.2930941099844850e+05 2.4115210010499042e+04 -999 2.96425997e-01 4.785690005e-01 -1.19561462e-01
 22 4 430284 7.2040851951758517e+05 4.1192830418068665e+05 2.2736868491261799e-14 4.1788467369805533e+05 7.3708361142752017e+05 2.2556676557279596e+04 -999 2.97381716e-01 4.724347481e-01 -1.19815842e-01
 23 4 430284 7.4133267567201471e+05 4.1210592727447284e+05 2.2434049919510510e-14 4.1041400985496020e+05 7.5906317963325279e+05 2.1191301162902804e+04 -999 2.98326685e-01 4.657512301e-01 -1.20062806e-01
 24 4 430284 7.4489206398820621e+05 3.7345436606282520e+05 2.2274126252776411e-14 4.0203708800212346e+05 7.6199436369028210e+05 1.9983733094705491e+04 -999 2.98982266e-01 4.606021857e-01 -1.20238391e-01
 25 4 430284 8.0534168991026969e+05 4.1126539847295033e+05 2.2143312153901415e-14 4.0051732169640547e+05 8.5043540236602945e+05 1.8906937650140975e+04 -999 2.99514248e-01 4.561268251e-01 -1.20387071e-01
 26 4 430284 6.8058740438017214e+05 3.6599219228830026e+05 2.1905027118993376e-14 3.6960653729125357e+05 7.1613981820337393e+05 1.7672577630247339e+04 -999 2.99969068e-01 4.515160617e-01 -1.20513520e-01
 27 4 430284 6.0075897303464741e+05 3.4720752949129755e+05 2.1672444648705666e-14 3.4578228493159654e+05 6.1616122790827265e+05 1.6582141180027134e+04 -999 3.00434220e-01 4.465802612e-01 -1.20646135e-01
 28 4 430284 6.1087217513807479e+05 3.3721570665377099e+05 2.1479718983354508e-14 3.3508655075205740e+05 6.2258465982280229e+05 1.5623520869762389e+04 -999 3.00922801e-01 4.411960206e-01 -1.20788871e-01
 29 4 430284 6.2548873939528596e+05 3.1698844388898258e+05 2.1340757464641436e-14 3.2861408706397825e+05 6.4320745970781706e+05 1.4795152690758505e+04 -999 3.01282884e-01 4.371121866e-01 -1.20895618e-01
 30 4 430284 6.8591253916742187e+05 3.6161248446624604e+05 2.1217865929773844e-14 3.3040253482646454e+05 7.2825847101032676e+05 1.4055276835065282e+04 -999 3.01595477e-01 4.334926402e-01 -1.20987260e-01
 31 4 430284 5.7634749709505530e+05 3.1633900661513652e+05 2.0992059114411068e-14 3.0266883770667890e+05 6.1212532788326172e+05 1.3163723009825455e+04 -999 3.01856353e-01 4.299166399e-01 -1.21057245e-01
 32 4 430284 4.9183756489724910e+05 2.8809605315052846e+05 2.0734202679011625e-14 2.7828307257905469e+05 5.0841882431387174e+05 1.2352591733890982e+04 -999 3.02154010e-01 4.258101741e-01 -1.21136343e-01
 33 4 430284 4.7783104767796810e+05 2.7500505519377009e+05 2.0499922469184082e-14 2.6347596135292371e+05 4.8546333789397602e+05 1.1633059539121707e+04 -999 3.02457559e-01 4.215935896e-01 -1.21216923e-01
 34 4 430284 5.3498576727945206e+05 2.8404457558733027e+05 2.0333247617773159e-14 2.6370993979065103e+05 5.5580064516982611e+05 1.0999642729004445e+04 -999 3.02742180e-01 4.176026356e-01 -1.21292844e-01
 35 4 430284 5.2971884715492709e+05 2.6141521691506749e+05 2.0238806557763407e-14 2.5802967601015916e+05 5.5381122674761317e+05 1.0451256618473464e+04 -999 3.02937098e-01 4.148348268e-01 -1.21345190e-01
 36 4 430284 4.5911023145674163e+05 2.5269775530698607e+05 2.0024550757267153e-14 2.3813440833430216e+05 4.8437063936685456e+05 9.8056013770969621e+03 -999 3.03126871e-01 4.117141022e-01 -1.21392700e-01
 37 4 430284 3.8874563412465545e+05 2.3092760660686303e+05 1.9782207757100702e-14 2.1655369896803051e+05 4.0387414317821950e+05 9.2199250171923195e+03 -999 3.03338977e-01 4.082785058e-01 -1.21446811e-01
 38 4 430284 3.7034056369435723e+05 2.1488713327128589e+05 1.9538187626317242e-14 2.0212878934450555e+05 3.7474039601662930e+05 8.6783925678657451e+03 -999 3.03574861e-01 4.045080741e-01 -1.21507989e-01
 39 4 430284 4.0038795230109285e+05 2.1441658816341570e+05 1.9368842623260782e-14 1.9859570562064546e+05 4.1281686645307270e+05 8.1991636026136694e+03 -999 3.03780254e-01 4.012619763e-01 -1.21562050e-01
 40 4 430284 4.2904402875308361e+05 2.3383974210756872e+05 1.9261881043535230e-14 1.9789510433675701e+05 4.5483533125986101e+05 7.7796331150723263e+03 -999 3.03943398e-01 3.987010332e-01 -1.21605557e-01
 41 4 430284 3.6358865981288708e+05 2.0433436495487727e+05 1.9042551648381630e-14 1.8115502779804933e+05 3.8817215108857566e+05 7.2896316724077114e+03 -999 3.04090663e-01 3.960896587e-01 -1.21642211e-01
 42 4 430284 2.9999495635932323e+05 1.8491871644413003e+05 1.8778543836985289e-14 1.6405437044147227e+05 3.1455596852417703e+05 6.8486747540608521e+03 -999 3.04264376e-01 3.930831869e-01 -1.21686251e-01
 43 4 430284 2.7533424668885960e+05 1.6909669132632943e+05 1.8503140862275494e-14 1.5115426432351128e+05 2.7859600389353512e+05 6.4489825289620276e+03 -999 3.04454960e-01 3.898611954e-01 -1.21735398e-01
 44 4 430284 2.9671068213779316e+05 1.7043968214067223e+05 1.8275062030798898e-14 1.4667383216494607e+05 3.0425080278989044e+05 6.0865627542815964e+03 -999 3.04631766e-01 3.869308188e-01 -1.21781681e-01
 45 4 430284 3.2635435921806347e+05 1.7997441509881933e+05 1.8101958567091431e-14 1.4684669596130669e+05 3.4226061470374145e+05 5.7616684334055071e+03 -999 3.04788011e-01 3.843741710e-01 -1.21823127e-01
 46 4 430284 2.7659482041044836e+05 1.6290748239172297e+05 1.7891128900998930e-14 1.3436743930759016e+05 2.9584850017880433e+05 5.3613453281691873e+03 -999 3.04913924e-01 3.820856008e-01 -1.21854379e-01
 47 4 430284 2.2218649284827863e+05 1.4430499956236209e+05 1.7630286085028769e-14 1.1997144263149932e+05 2.3568689313809705e+05 5.0036772930698862e+03 -999 3.05067690e-01 3.793720836e-01 -1.21893033e-01
 48 4 430284 1.9537116333021177e+05 1.3043439236105220e+05 1.7344642208772265e-14 1.0821795100351408e+05 1.9879960295915641e+05 4.6838808362602149e+03 -999 3.05241371e-01 3.763816594e-01 -1.21937431e-01
 49 4 430284 2.0451439663504329e+05 1.2874164624441236e+05 1.7103901049760938e-14 1.0261876904782666e+05 2.0932382378011843e+05 4.3976093530697008e+03 -999 3.05404597e-01 3.736329296e-01 -1.21979893e-01
 50 4 430284 2.2260866275078288e+05 1.3771283574435450e+05 1.6924175969497612e-14 1.0066918448111946e+05 2.3473298237842607e+05 4.1431092888465892e+03 -999 3.05545768e-01 3.712911114e-01 -1.22017327e-01
 51 4 430284 1.8853542777417312e+05 1.2045247016915423e+05 1.6722407662976886e-14 9.1846304848417378e+04 2.0239386119263290e+05 3.8169724894426204e+03 -999 3.05667576e-01 3.690918581e-01 -1.22047885e-01
 52 4 430284 1.5146690335891827e+05 1.0639659762768901e+05 1.6474519425659732e-14 8.2159834764477986e+04 1.6254660733844136e+05 3.5107211845982965e+03 -999 3.05813953e-01 3.665055637e-01 -1.22085275e-01
 53 4 430284 1.2940943585860943e+05 9.6490889494006464e+04 1.6196645341104621e-14 7.3412795338366501e+04 1.3444062702142313e+05 3.2487626037083742e+03 -999 3.05983065e-01 3.635821056e-01 -1.22129411e-01
 54 4 430284 1.2923124828961829e+05 9.3019307498695518e+04 1.5944910903138668e-14 6.8152397380420662e+04 1.3302300205107586e+05 3.0161456460820459e+03 -999 3.06149769e-01 3.607552400e-01 -1.22174214e-01
 55 4 430284 1.3464426509629280e+05 9.4121687923842954e+04 1.5748347056914746e-14 6.5265322703448648e+04 1.4112078711958230e+05 2.8179502313194816e+03 -999 3.06296111e-01 3.583028076e-01 -1.22215137e-01
 56 4 430284 1.1560822039942165e+05 8.6079014036621287e+04 1.5551071364010863e-14 6.0166759838332262e+04 1.2346106073251246e+05 2.5444892810215315e+03 -999 3.06417360e-01 3.560991475e-01 -1.22248380e-01
 57 4 430284 9.3748037153958721e+04 7.8473576157679534e+04 1.5317103985007275e-14 5.4331455323736285e+04 1.0094553492709639e+05 2.3171119027282634e+03 -999 3.06564628e-01 3.534658033e-01 -1.22289700e-01
 58 4 430284 7.7769468131405069e+04 7.1872790664750602e+04 1.5017748542750884e-14 4.8524723653998299e+04 8.2172896390737180e+04 2.1042368257793355e+03 -999 3.06740274e-01 3.503740151e-01 -1.22340604e-01
 59 4 430284 7.2715360112467286e+04 6.8039159475099601e+04 1.4751203444657682e-14 4.4412270606293598e+04 7.5556204703213734e+04 1.9294909536856519e+03 -999 3.06914603e-01 3.473415788e-01 -1.22393745e-01
 60 4 430284 7.0894896371964787e+04 6.5772373330909541e+04 1.4525834106472425e-14 4.1576605875798690e+04 7.3727097017764841e+04 1.7804464411169820e+03 -999 3.07072710e-01 3.445985289e-01 -1.22445383e-01
 61 4 430284 6.1862136575052748e+04 6.2204609276209369e+04 1.4317518788128676e-14 3.8587628515345641e+04 6.5126428023659282e+04 1.5928054220303954e+03 -999 3.07197558e-01 3.421873246e-01 -1.22484909e-01
 62 4 430284 5.1222333586180357e+04 5.8362585124628378e+04 1.4041247893720604e-14 3.5071598854837859e+04 5.4104197398166085e+04 1.4210367600757447e+03 -999 3.07350358e-01 3.392413583e-01 -1.22534051e-01
 63 4 430284 4.2443661708867861e+04 5.4462133679485196e+04 1.3705819171528766e-14 3.1306633209574182e+04 4.4102595169597153e+04 1.2822900926436237e+03 -999 3.07533331e-01 3.356986335e-01 -1.22594550e-01
 64 4 430284 3.7982671370407938e+04 5.1386810332704081e+04 1.3386522466660297e-14 2.8246692417639289e+04 3.8843532478862937e+04 1.1692356815466630e+03 -999 3.07712005e-01 3.321796567e-01 -1.22656905e-01
 65 4 430284 3.5125265154229397e+04 4.8977146802134419e+04 1.3102644494185017e-14 2.5882923435557517e+04 3.5653330531253894e+04 1.0769603587677063e+03 -999 3.07871059e-01 3.289410600e-01 -1.22717210e-01
 66 4 430284 3.1184439409571984e+04 4.6662986092353167e+04 1.2850868127301777e-14 2.3924293166523814e+04 3.1702267373940402e+04 9.6098796274219580e+02 -999 3.07974198e-01 3.259640056e-01 -1.22748335e-01
 67 4 430284 2.6708386346929772e+04 4.4017025820366405e+04 1.2540837721054917e-14 2.1643633095134097e+04 2.7014599111924643e+04 8.7013018725154870e+02 -999 3.08091876e-01 3.222355382e-01 -1.22781120e-01
 68 4 430284 2.2847655916012747e+04 4.1167930503771888e+04 1.2162165856610359e-14 1.9198144608957038e+04 2.2872680546192521e+04 8.0458981285726259e+02 -999 3.08218156e-01 3.176710458e-01 -1.22811962e-01
 69 4 430284 2.0382414311158602e+04 3.8689540883127920e+04 1.1786507730960030e-14 1.7018603041150858e+04 2.0412542376367346e+04 7.5820771384438660e+02 -999 3.08328083e-01 3.130326010e-01 -1.22829444e-01
 70 4 430284 1.8779803962842914e+04 3.6669815999900304e+04 1.1470133119688006e-14 1.5408763412735669e+04 1.8989242090302931e+04 7.2317518702526422e+02 -999 3.08412767e-01 3.086481396e-01 -1.22836703e-01
 71 4 430284 1.6893123358081295e+04 3.4643643060019371e+04 1.1159093152783995e-14 1.4013259438611471e+04 1.7418258953367000e+04 6.7432138242813028e+02 -999 3.08426948e-01 3.038228615e-01 -1.22765838e-01
 72 4 430284 1.5137760314358762e+04 3.2353905708063630e+04 1.0788875828427804e-14 1.2679751153101402e+04 1.6052737790225654e+04 6.6217687805711967e+02 -999 3.08450137e-01 2.974536081e-01 -1.22656220e-01
 73 4 430284 1.4205104756131006e+04 3.0080263229113189e+04 1.0384009349177057e-14 1.1807745480427640e+04 1.5544211500640353e+04 6.8966339045547545e+02 -999 3.08506807e-01 2.895617136e-01 -1.22511920e-01
 74 4 430284 1.4207025227561855e+04 2.8297682795104523e+04 1.0050669853871453e-14 1.1617032543272047e+04 1.5886062064647462e+04 7.4580230107031821e+02 -999 3.08625497e-01 2.814848706e-01 -1.22380130e-01
 75 4 430284 1.4598932775134095e+04 2.6933857152136930e+04 9.7868521863362575e-15 1.1771737107530260e+04 1.6521956228659543e+04 8.4795309586748544e+02 -999 3.08826357e-01 2.734806915e-01 -1.22293031e-01
 76 4 430284 1.4219720034223659e+04 2.4912619252840184e+04 9.4565438826010374e-15 1.1003807823688638e+04 1.6380150179491005e+04 1.0599977164285281e+03 -999 3.09284382e-01 2.623943865e-01 -1.22262328e-01
 77 4 430284 1.4340514141154701e+04 2.3115493906885138e+04 9.2603964970247206e-15 1.0466169246688622e+04 1.6573889248566677e+04 1.6837504462082131e+03 -999 3.10214337e-01 2.468216182e-01 -1.22441443e-01
 78 4 430284 1.4622259572328670e+04 2.2392228328338508e+04 9.1592782819400404e-15 1.0281732030140091e+04 1.6728980603106935e+04 3.4904624100907799e+03 -999 3.11560506e-01 2.295035202e-01 -1.23074306e-01
 79 4 430284 1.4954727987560625e+04 2.2823496420922558e+04 9.0540221554148327e-15 1.0384973565507347e+04 1.6743339975051404e+04 9.8588259203353100e+03 -999 3.12936828e-01 2.123641006e-01 -1.24259220e-01
 80 4 430284 1.5382298469128986e+04 2.3742507034745555e+04 8.7991773591215032e-15 1.0589777668951681e+04 1.6807860930872364e+04 2.1085636156217955e+04 -999 3.13712717e-01 1.988912720e-01 -1.25610325e-01
 81 4 430284 1.3490847531456739e+04 1.9421958145829158e+04 2.7580353519514949e-14 9.7620193470848080e+03 1.4645662951330240e+04 1.2021106565257264e+05 -999 3.14370987e-01 1.742138985e-01 -1.28693897e-01
 82 4 430284 1.2099285755321409e+04 1.7955249180861410e+04 6.4600088847436649e-14 9.6295037858805172e+03 1.3124716853476399e+04 2.1011186299512300e+05 -999 3.13046527e-01 1.514816401e-01 -1.31698254e-01
 83 4 430284 1.1470308973894262e+04 2.7109426799903784e+04 8.0810878706526841e-14 9.5154940687301605e+03 1.4109514452138259e+04 1.4542161748594209e+05 -999 3.11863173e-01 1.456919513e-01 -1.32177154e-01
 84 4 430284 1.1303882479960888e+04 2.6797164446999843e+04 8.5342655669767093e-14 8.9479960787441159e+03 1.3484740341586354e+04 9.3527042248385784e+04 -999 3.11483819e-01 1.442821242e-01 -1.32243649e-01
 85 4 430284 1.1201121936566606e+04 2.4627227184334450e+04 8.8195092633432076e-14 8.8347618675686517e+03 1.2515254173723670e+04 5.6223173938934167e+04 -999 3.11235654e-01 1.434006751e-01 -1.32277814e-01
 86 4 430284 1.0915135424031458e+04 1.5720282610548576e+04 5.9047096079258790e-14 8.6993928360070440e+03 1.1446806518349636e+04 4.0155189886683045e+04 -999 3.10998067e-01 1.412328543e-01 -1.32479053e-01
 87 4 430284 1.0707865721695647e+04 1.5691342030605721e+04 4.6426111304035907e-14 8.5279150145919266e+03 1.1137464937536117e+04 4.1534096881820398e+04 -999 3.10723395e-01 1.390689030e-01 -1.32666481e-01
 88 4 430284 1.0560081594317855e+04 1.5808503824766171e+04 3.9517391334757090e-14 8.3029884045978106e+03 1.0887668706682560e+04 4.2840034207737059e+04 -999 3.10427788e-01 1.369668242e-01 -1.32844039e-01
 89 4 430284 1.0504680453416913e+04 1.6022334186157948e+04 3.4313841695047008e-14 8.1122880855517378e+03 1.0722144582217376e+04 4.4001240300144040e+04 -999 3.10110496e-01 1.349612105e-01 -1.33010640e-01
 90 4 430284 1.0550538290620589e+04 1.6266205386255566e+04 3.0518550861279278e-14 7.8675538270543866e+03 1.0656205715842469e+04 4.4991573714885082e+04 -999 3.09766809e-01 1.330716301e-01 -1.33163383e-01
 91 4 430284 1.0677499279710653e+04 1.6668956122763757e+04 3.3678291432856927e-14 7.6415922634364606e+03 1.0648995447274096e+04 4.5606947569833981e+04 -999 3.09254100e-01 1.307571529e-01 -1.33334046e-01
 92 4 430284 1.0720766051698791e+04 1.6990998966953222e+04 4.2460136814505672e-14 7.4516708829683730e+03 1.0604206534347904e+04 4.6232130342767807e+04 -999 3.08690117e-01 1.286016464e-01 -1.33476184e-01
 93 4 430284 1.0570136711968982e+04 1.7189603944903727e+04 4.5559818184743176e-14 7.2997346381433435e+03 1.0405702451090301e+04 4.6664875984501348e+04 -999 3.08072822e-01 1.265774712e-01 -1.33586563e-01
 94 4 430284 1.0236617798853018e+04 1.7280623611646603e+04 4.5713686589836115e-14 7.2397834882760844e+03 1.0062109654718395e+04 4.6903825832565861e+04 -999 3.07398935e-01 1.246596568e-01 -1.33662086e-01
 95 4 430284 9.8342178617151567e+03 1.7312182985643471e+04 4.6126551823910069e-14 7.3220077501272226e+03 9.6766927275064299e+03 4.6954695954866533e+04 -999 3.06666889e-01 1.228321561e-01 -1.33699991e-01
 96 4 430284 9.4607870977328075e+03 1.7347008428459536e+04 5.9809571893432895e-14 7.4865724593095956e+03 9.3351794177718693e+03 4.6841379122363011e+04 -999 3.05877696e-01 1.210866921e-01 -1.33695558e-01
 97 4 430284 9.1512612795823388e+03 1.7345085146043853e+04 7.6178051105612800e-14 7.6718136599999834e+03 9.0525837038392747e+03 4.6463112140550176e+04 -999 3.05036349e-01 1.194208511e-01 -1.33651299e-01
 98 4 430284 8.9131762050330562e+03 1.7333732193930708e+04 7.7326068510625901e-14 7.8158580046808356e+03 8.8265214055651395e+03 4.5820373874563666e+04 -999 3.04147966e-01 1.178359587e-01 -1.33565154e-01
 99 4 430284 8.7311216204039829e+03 1.7311584245285376e+04 7.1965522956560850e-14 7.8853833309779493e+03 8.6407602428575410e+03 4.4934902035169442e+04 -999 3.03217135e-01 1.163299931e-01 -1.33434880e-01
 100 4 430284 8.5872601844446745e+03 1.7268528671109434e+04 6.7466048154477766e-14 7.8620720607144176e+03 8.4814272458716259e+03 4.3842670803575449e+04 -999 3.02249414e-01 1.148989602e-01 -1.33258980e-01
 101 4 430284 8.4079867712497453e+03 1.6994907480893085e+04 3.9071358713818769e-14 7.7493394600165529e+03 8.2738315691053922e+03 4.2181117190185847e+04 -999 3.00984684e-01 1.132033329e-01 -1.32965753e-01
 102 4 430284 8.2804367961371699e+03 1.6708962209373323e+04 2.5321789135751542e-14 7.5369567930107651e+03 8.1138979195563188e+03 3.9879999922038871e+04 -999 2.99693618e-01 1.115983476e-01 -1.32607518e-01
 103 4 430284 8.1991501470750281e+03 1.6375654889578891e+04 1.8667622813528832e-14 7.2301310396109948e+03 7.9915361222603287e+03 3.7379500256087515e+04 -999 2.98391494e-01 1.100720561e-01 -1.32191632e-01
 104 4 430284 8.1326321064694193e+03 1.5990120360000346e+04 1.5377988397078661e-14 6.8994534243066537e+03 7.8821813531117050e+03 3.4831852553972261e+04 -999 2.97097537e-01 1.086138666e-01 -1.31728331e-01
 105 4 430284 8.1033345302200187e+03 1.5627969388906562e+04 1.3472717227023520e-14 6.6236060062642891e+03 7.8158696431297194e+03 3.2383417242576317e+04 -999 2.95843458e-01 1.072258063e-01 -1.31232952e-01
 106 4 430284 8.0375988655080428e+03 1.4971984469884232e+04 1.1988521451375100e-14 6.3159073554688939e+03 7.7036252267117798e+03 2.9599618187736600e+04 -999 2.94368264e-01 1.055753194e-01 -1.30580936e-01
 107 4 430284 8.0012866163741619e+03 1.4341495650762050e+04 1.0926385585238508e-14 6.1250173357062667e+03 7.6225246356332791e+03 2.6941013477447461e+04 -999 2.93068185e-01 1.040438958e-01 -1.29925369e-01
 108 4 430284 7.9654364234614823e+03 1.3739128283618940e+04 1.0152632192782629e-14 6.0724286458821471e+03 7.5487221115827560e+03 2.4826155788279411e+04 -999 2.92001456e-01 1.026486485e-01 -1.29288199e-01
 109 4 430284 7.9296816357534271e+03 1.3179018285372900e+04 9.5377254274572210e-15 6.1532468800382030e+03 7.4906150864708516e+03 2.2978649159766701e+04 -999 2.91208915e-01 1.013909955e-01 -1.28685888e-01
 110 4 430284 7.8904065674829581e+03 1.2669589510370291e+04 9.1055188605581419e-15 6.3348341725053151e+03 7.4455562150860405e+03 2.1428646941992818e+04 -999 2.90714186e-01 1.002582767e-01 -1.28130811e-01
 111 4 430284 7.6902241968906146e+03 1.2077216881892455e+04 9.3063937431517077e-14 6.5942469565243773e+03 7.2892605846967654e+03 1.9813644716193630e+04 -999 2.90568780e-01 9.898882411e-02 -1.27530298e-01
 112 4 430284 7.5220304989238084e+03 1.1557488058466817e+04 1.1685822526167640e-13 6.8821292289392823e+03 7.1238174853433766e+03 1.8392697716149400e+04 -999 2.90912087e-01 9.783449043e-02 -1.27036875e-01
 113 4 430284 7.4171295356743376e+03 1.1166840733600999e+04 1.0545354967908298e-13 7.2097024040414481e+03 7.0253590743970099e+03 1.7253997446702022e+04 -999 2.91741150e-01 9.674551052e-02 -1.26667356e-01
 114 4 430284 7.3763444494632122e+03 1.0919931709299468e+04 8.3408486020272970e-14 7.5367159199689158e+03 6.9783094876165696e+03 1.6382714765226145e+04 -999 2.93057051e-01 9.569755692e-02 -1.26438285e-01
 115 4 430284 7.4276406476444217e+03 1.0860488564368399e+04 6.3938077116492872e-14 7.7688425617884477e+03 6.9959739698958338e+03 1.6160564829753166e+04 -999 2.94867516e-01 9.468495548e-02 -1.26368416e-01
 116 4 430284 7.3045148690822152e+03 1.0824327538038746e+04 6.2524583259827618e-14 8.1272377934170145e+03 6.8948549979328864e+03 1.6672404442395306e+04 -999 2.97897190e-01 9.349118185e-02 -1.26555505e-01
 117 4 430284 7.3955794913062473e+03 1.1065851702073393e+04 1.8861287288212257e-13 8.4792461624229090e+03 7.0212901289235188e+03 1.8181456050804434e+04 -999 3.01675258e-01 9.239146371e-02 -1.27032572e-01
 118 4 430284 7.5416850834454317e+03 1.1471131032232308e+04 4.4712453508343684e-13 8.7641296669092371e+03 7.2179005003286475e+03 2.0592784886258440e+04 -999 3.06133303e-01 9.137120042e-02 -1.27799160e-01
 119 4 430284 7.7418310560465297e+03 1.1999501651338029e+04 6.7317560600317449e-13 8.8995219591839741e+03 7.4706446293436484e+03 2.3935178542726968e+04 -999 3.11177561e-01 9.040437916e-02 -1.28840636e-01
 120 4 430284 7.9837314413631757e+03 1.2617493455917900e+04 8.2944563823044579e-13 8.8595456292370454e+03 7.8332093338614168e+03 2.8964564105081496e+04 -999 3.16309423e-01 8.954044126e-02 -1.30043066e-01
 121 4 430284 7.6051254601917826e+03 1.2103965372010103e+04 8.9852787691540516e-13 8.6755140276526490e+03 7.4591511500486849e+03 3.5644878008287786e+04 -999 3.21622787e-01 8.873856920e-02 -1.31390396e-01
 122 4 430284 7.7480694240317071e+03 1.2353283037774296e+04 1.0383117636324806e-12 8.6273384886151180e+03 7.7020772604642661e+03 5.0268661147598155e+04 -999 3.27170716e-01 8.800139922e-02 -1.32907876e-01
 123 4 430284 8.1650797451746512e+03 1.4340995923160508e+04 1.0095114133563836e-12 8.7356307250989139e+03 8.4827867734705487e+03 7.5975349579351285e+04 -999 3.32884689e-01 8.728430648e-02 -1.34579211e-01
 124 4 430284 8.4168726449156875e+03 2.2823414101499657e+04 9.6508798600894710e-13 8.9241341238089954e+03 1.1771953594438935e+04 8.7852451974076990e+04 -999 3.35869037e-01 8.691043652e-02 -1.35507082e-01
 125 4 430284 8.4035153489713794e+03 2.4731916613470989e+04 9.5357906331466277e-13 8.9483527357956282e+03 1.3488903809876814e+04 9.6163050416109676e+04 -999 3.36847615e-01 8.678522613e-02 -1.35820456e-01
 126 4 430284 8.5736307199230396e+03 1.3570418529877599e+04 7.0173382827799587e-13 8.8765869913888182e+03 8.5023621462848660e+03 7.2031693657829863e+04 -999 3.40692105e-01 8.629006352e-02 -1.37039411e-01
 127 4 430284 8.8942412641065039e+03 1.3087354889280448e+04 7.0078078285283572e-13 8.9419138806107931e+03 8.8030675901689883e+03 6.7111467647042984e+04 -999 3.44572988e-01 8.580344228e-02 -1.38317530e-01
 128 4 430284 9.1488720113882882e+03 1.3296652000069911e+04 6.7344794331757553e-13 8.9544196121056448e+03 9.1137065167757173e+03 6.8587034703618541e+04 -999 3.48463194e-01 8.533903412e-02 -1.39646346e-01
 129 4 430284 9.1599724946639981e+03 2.4170902706777721e+04 6.4213555079624776e-13 9.0669181962849943e+03 1.2091710019801292e+04 7.0934384111292995e+04 -999 3.50946512e-01 8.505297766e-02 -1.40523455e-01
 130 4 430284 9.1331893564878155e+03 2.3228934895021317e+04 6.3617350925740869e-13 8.8853615549766182e+03 1.2923558531536492e+04 6.9969530166625686e+04 -999 3.51463181e-01 8.499413827e-02 -1.40709369e-01
 131 4 430284 8.9535656259372845e+03 1.2404620619827589e+04 4.9878690954223909e-13 8.7522297903082417e+03 8.8836823892181455e+03 7.4014384369564475e+04 -999 3.56220295e-01 8.444740568e-02 -1.42434627e-01
 132 4 430284 8.7980281546771039e+03 1.1909773912252787e+04 5.5384028320170888e-13 8.6794640561462893e+03 8.7552489255403361e+03 7.6634484631246145e+04 -999 3.60869618e-01 8.393330321e-02 -1.44167869e-01
 133 4 430284 8.6393736839436660e+03 1.3096242701005771e+04 5.4430933922597036e-13 9.2720172043286675e+03 9.2393216113682538e+03 7.8591832147069043e+04 -999 3.65330024e-01 8.344396583e-02 -1.45868252e-01
 134 4 430284 8.5681021283209520e+03 1.7835437571112052e+04 5.3184613551722373e-13 9.4956100395039157e+03 1.3291754068460225e+04 7.6321883412794647e+04 -999 3.66439404e-01 8.331693140e-02 -1.46298807e-01
 135 4 430284 8.5392012302138501e+03 1.6969167774846152e+04 5.2723958892816423e-13 8.7640234572999543e+03 1.3654449802794892e+04 7.4019187134363208e+04 -999 3.66884306e-01 8.326440488e-02 -1.46472157e-01
 136 4 430284 8.3765313818494888e+03 1.0999193230830300e+04 5.1596979611398390e-13 8.6767338446037884e+03 8.3564257876244701e+03 7.5217090883117227e+04 -999 3.71928005e-01 8.264546521e-02 -1.48448181e-01
 137 4 430284 8.1881228972815170e+03 1.0590565123056540e+04 6.8097190874730307e-13 8.5937916068883987e+03 8.1362452527310270e+03 7.5285072688889733e+04 -999 3.76586943e-01 8.201352564e-02 -1.50312669e-01
 138 4 430284 8.0715866635263646e+03 1.0884340849490462e+04 7.7994060881732159e-13 8.6006733046816771e+03 8.2786450089015616e+03 7.3862568486810284e+04 -999 3.80840972e-01 8.134754367e-02 -1.52051496e-01
 139 4 430284 8.0269626201312622e+03 1.6093360342036462e+04 8.0499310513255832e-13 8.7535391336272205e+03 1.3912758015200179e+04 7.1466237959664897e+04 -999 3.82429680e-01 8.106098385e-02 -1.52714645e-01
 140 4 430284 8.0129977838544319e+03 1.6297292737564536e+04 8.1206886315654547e-13 8.7229345715499003e+03 1.4564423272048980e+04 6.7399931164114518e+04 -999 3.82830251e-01 8.098451921e-02 -1.52883247e-01
 141 4 430284 7.9555203438719636e+03 9.7113668268593483e+03 8.1840496141120399e-13 8.6872752644432403e+03 7.9259472587426862e+03 6.9577440402655979e+04 -999 3.87321193e-01 8.010714524e-02 -1.54792078e-01