TITLE = "005.01 ALPHA 3.00 GRIDLEVEL 2"

VARIABLES = "ITERATION"  "GRID_LEVEL"  "GRID_SIZE"  "CONTINUITY"  "MOMENTUMX"  "MOMENTUMY"  "MOMENTUMZ"  "ENERGY"  "TURB1"  "TURB2"  "CL_TOT"  "CD_TOT"  "CM_TOT"

DATASETAUXDATA ParticipantID   = "005"
DATASETAUXDATA SubmissionDate  = "10-31-2024"
DATASETAUXDATA Name            = "Jeffrey A. Housman"
DATASETAUXDATA Email           = "jeffrey.a.housman@nasa.gov"
DATASETAUXDATA Institution     = "NASA Ames Research Center"
DATASETAUXDATA SolverName      = "LAVA Curvilinear"
DATASETAUXDATA BasicAlgorithm  = "RANS"
DATASETAUXDATA TurbulenceModel = "SA-neg"
DATASETAUXDATA GridId          = "Multiblock"
DATASETAUXDATA Discretization  = "Finite difference"
DATASETAUXDATA Order           = "2"
DATASETAUXDATA DistanceCalc    = "Exact"
DATASETAUXDATA Notes           = " "

ZONE T = "005.01 - Alpha 3.00 - Grid Level 2"
AUXDATA Tstatic         = "271.0"
AUXDATA Deltat          = "-999"
AUXDATA GridFileName    = "ONERA-OAT15A_230mmChord_780mmSpan_upZ_2024_06_25-Structured_23mm_Level-2.x"
AUXDATA Misc            = " "
 0 2 119662 1.7385008393757927e+05 3.5674075658206822e+05 3.0558030855721757e-14 1.5115309752671068e+05 1.7600384902034845e+05 4.8638513207994186e+05 -999 7.61356225e-03 4.528276277e-01 -4.25214798e-03
 1 2 119662 2.3760011943356850e+05 2.8653988465082832e+05 2.7490116925840795e-14 1.2673559116926938e+05 2.3015905858008083e+05 3.1386978971651453e+05 -999 4.41769374e-02 4.467565955e-01 -2.00452504e-02
 2 2 119662 2.8698573957846727e+05 2.5656307055689834e+05 2.5156200213775818e-14 1.4060708055194901e+05 2.7449079527315556e+05 2.0229947771748825e+05 -999 8.41313084e-02 4.518939748e-01 -3.70653341e-02
 3 2 119662 3.3721608101150242e+05 2.3556663726172387e+05 2.3351960749454167e-14 1.6276606372920756e+05 3.2166677411555406e+05 1.2956313420957822e+05 -999 1.18091282e-01 4.614891680e-01 -5.21318115e-02
 4 2 119662 3.8775519456547691e+05 2.1756568956731472e+05 2.1946206613889760e-14 1.8962296608170244e+05 3.7292151007940102e+05 8.1791438517259972e+04 -999 1.47651165e-01 4.737200840e-01 -6.38787887e-02
 5 2 119662 4.3554364894975128e+05 2.1802307673222900e+05 2.0836054399246647e-14 2.1922945722853616e+05 4.2514045003886457e+05 4.2128008261373390e+04 -999 1.71446463e-01 4.864523432e-01 -7.28643296e-02
 6 2 119662 3.9746835450524872e+05 2.5612708538761479e+05 1.9956770629156563e-14 2.3142336410130374e+05 3.8999023075104941e+05 3.4118587094327035e+04 -999 1.87872230e-01 4.923271665e-01 -7.96233158e-02
 7 2 119662 3.9391257751442114e+05 2.7523034729295969e+05 1.9159323679152217e-14 2.3561132430679598e+05 3.8319604769530706e+05 2.8264213170165964e+04 -999 2.00725341e-01 4.936724257e-01 -8.54162974e-02
 8 2 119662 4.2875684682526172e+05 2.7310300094746734e+05 1.8591743382261915e-14 2.3226807267061915e+05 4.3122257378449239e+05 2.4241821054116877e+04 -999 2.10631576e-01 4.892718051e-01 -8.98318055e-02
 9 2 119662 4.4856867426118004e+05 2.5351876170199507e+05 1.8183603243797137e-14 2.3300284636814351e+05 4.5472086665886949e+05 2.1438473717134697e+04 -999 2.20198478e-01 4.813913020e-01 -9.36230190e-02
 10 2 119662 4.6395800673814479e+05 2.5041934030549720e+05 1.7983950085279690e-14 2.2689298592086611e+05 4.8062010449251364e+05 1.9184630989363970e+04 -999 2.27015341e-01 4.753214945e-01 -9.61117432e-02
 11 2 119662 3.8367941186009295e+05 2.1589261652552494e+05 1.7778525412861059e-14 2.0891216795363935e+05 3.9154145597472601e+05 1.7189088285665173e+04 -999 2.35072064e-01 4.678111707e-01 -9.90932907e-02
 12 2 119662 3.6254001110490051e+05 2.1806929523033794e+05 1.7633538876645634e-14 2.0104708127301291e+05 3.6485059438462427e+05 1.5619640979675858e+04 -999 2.41425005e-01 4.618035696e-01 -1.01422359e-01
 13 2 119662 3.4406483466577431e+05 1.9226095702680032e+05 1.7590773140619240e-14 1.9115914081663330e+05 3.4307298275181738e+05 1.4304498173748412e+04 -999 2.46392880e-01 4.565965833e-01 -1.03306659e-01
 14 2 119662 3.7623503209439071e+05 2.0094982221579127e+05 1.7599091028969413e-14 1.8894352725979430e+05 3.8738335214091046e+05 1.3159825640043966e+04 -999 2.49783501e-01 4.523539319e-01 -1.04672584e-01
 15 2 119662 3.4119299843452463e+05 1.6950580857205018e+05 1.7565865169198217e-14 1.7823926179441169e+05 3.4746140411271440e+05 1.2202010458142169e+04 -999 2.52168600e-01 4.487792769e-01 -1.05712475e-01
 16 2 119662 3.1818158445495606e+05 1.7690558292968376e+05 1.7456672441137902e-14 1.7097719719585107e+05 3.2455364569839701e+05 1.1161332642551313e+04 -999 2.54242890e-01 4.450458511e-01 -1.06679030e-01
 17 2 119662 2.8297177954345493e+05 1.6924038059517893e+05 1.7330619445526030e-14 1.5706316488423065e+05 2.8843404692200792e+05 1.0274134915830928e+04 -999 2.56337326e-01 4.409046835e-01 -1.07671472e-01
 18 2 119662 2.9373199077799293e+05 1.6459360957951681e+05 1.7223978958398162e-14 1.5361207528976581e+05 2.9885102216114302e+05 9.4979212129000425e+03 -999 2.58764524e-01 4.356980894e-01 -1.08797864e-01
 19 2 119662 2.6601789301522338e+05 1.4606051192428760e+05 1.7109919889830820e-14 1.4239533427175408e+05 2.7084271699851548e+05 8.8413955833137315e+03 -999 2.60210154e-01 4.322193304e-01 -1.09423312e-01
 20 2 119662 3.1075481833016273e+05 1.7163723937638331e+05 1.6991382365735441e-14 1.4807360398067863e+05 3.2599275983528706e+05 8.2732925726970734e+03 -999 2.61795545e-01 4.279839576e-01 -1.10071245e-01
 21 2 119662 2.5789458619604562e+05 1.5849599685196107e+05 1.6853165012671912e-14 1.3243518444916204e+05 2.7316033593517111e+05 7.6439371998034640e+03 -999 2.62846265e-01 4.243330958e-01 -1.10469432e-01
 22 2 119662 2.1691508486396653e+05 1.2984933892385938e+05 1.6689900545285442e-14 1.1921696005063615e+05 2.2197774879714407e+05 7.0751982574436415e+03 -999 2.63968283e-01 4.198863646e-01 -1.10883639e-01
 23 2 119662 1.9952201539732725e+05 1.2457560310617693e+05 1.6536171098683397e-14 1.1102619715733422e+05 2.0129534243860198e+05 6.5759513207186965e+03 -999 2.64863013e-01 4.158135171e-01 -1.11207882e-01
 24 2 119662 2.2677037473344847e+05 1.2722021209126961e+05 1.6415371751888145e-14 1.1032229022799147e+05 2.3597416627066952e+05 6.1409194921890439e+03 -999 2.65665297e-01 4.117866270e-01 -1.11495747e-01
 25 2 119662 2.0367529552721541e+05 1.0607043150059244e+05 1.6340184752691047e-14 1.0270177679657875e+05 2.1015945348642246e+05 5.7670824724282184e+03 -999 2.66187931e-01 4.089204779e-01 -1.11682684e-01
 26 2 119662 1.8250711360012548e+05 1.0723855169770494e+05 1.6192441214657936e-14 9.6028050449037517e+04 1.8939750573254703e+05 5.3191750902584618e+03 -999 2.66664936e-01 4.057634961e-01 -1.11848822e-01
 27 2 119662 1.5636558232588184e+05 1.0094487696047645e+05 1.6003473437883922e-14 8.6488868656529507e+04 1.6163958525582348e+05 4.9243091106288030e+03 -999 2.67194696e-01 4.020402988e-01 -1.12035464e-01
 28 2 119662 1.4681097944655470e+05 9.4484793126896839e+04 1.5805764763959214e-14 7.9607368786398380e+04 1.4949440827562285e+05 4.5791405930333121e+03 -999 2.67708112e-01 3.981908639e-01 -1.12220218e-01
 29 2 119662 1.5706862755476934e+05 9.1296310755400642e+04 1.5613469000193270e-14 7.7118503945373683e+04 1.6104162086418801e+05 4.2745514441866662e+03 -999 2.68161929e-01 3.945677453e-01 -1.12387093e-01
 30 2 119662 1.4892857405499526e+05 8.4889255427429001e+04 1.5480753056396916e-14 7.2855836924887990e+04 1.5545383000364402e+05 4.0133998470530005e+03 -999 2.68450586e-01 3.921191624e-01 -1.12494265e-01
 31 2 119662 1.2769808137784642e+05 7.9240720278711669e+04 1.5288844286173348e-14 6.6669476409603769e+04 1.3397787902024714e+05 3.7124194952278353e+03 -999 2.68731876e-01 3.892408990e-01 -1.12594951e-01
 32 2 119662 1.0664970483370734e+05 7.4956018198202582e+04 1.5048076705773186e-14 5.9876357669786215e+04 1.1056202179217254e+05 3.4378243989489224e+03 -999 2.69055523e-01 3.858185554e-01 -1.12710739e-01
 33 2 119662 9.8395055671044320e+04 7.0683914660583367e+04 1.4802951873284051e-14 5.4704731158179442e+04 9.9955857179994782e+04 3.1958685937644273e+03 -999 2.69365796e-01 3.824038886e-01 -1.12822012e-01
 34 2 119662 1.0717760208973437e+05 7.0514587991639608e+04 1.4580448603639202e-14 5.2745912802319843e+04 1.1083412069421457e+05 2.9840951281459247e+03 -999 2.69635446e-01 3.793122196e-01 -1.12918776e-01
 35 2 119662 1.0380849991651802e+05 6.4789625553593090e+04 1.4415506406715621e-14 5.0572049240516135e+04 1.0692433337396316e+05 2.8031380361481547e+03 -999 2.69833489e-01 3.769543757e-01 -1.12989438e-01
 36 2 119662 8.8886084453859919e+04 6.3526791881711986e+04 1.4215811315288842e-14 4.6193545208407086e+04 9.3555622863801240e+04 2.5920326686837811e+03 -999 2.70005674e-01 3.744598015e-01 -1.13046741e-01
 37 2 119662 7.1946291165889954e+04 5.8047463258908341e+04 1.3983038831763741e-14 4.1008489323116068e+04 7.5576155782343907e+04 2.4025264267156135e+03 -999 2.70204156e-01 3.715829753e-01 -1.13112771e-01
 38 2 119662 6.2987768742148131e+04 5.3051292423581093e+04 1.3709776465501178e-14 3.6655541823497369e+04 6.3925489513383676e+04 2.2304132072308839e+03 -999 2.70422775e-01 3.684206601e-01 -1.13185559e-01
 39 2 119662 6.5984208026186840e+04 5.1530035814240233e+04 1.3439941411392559e-14 3.4531323029388535e+04 6.7654663053803830e+04 2.0772177943946863e+03 -999 2.70629279e-01 3.654340807e-01 -1.13254515e-01
 40 2 119662 6.5585894447297294e+04 4.9937765684948448e+04 1.3247563162996853e-14 3.3128799177502064e+04 6.8153768134953629e+04 1.9463321824243278e+03 -999 2.70780167e-01 3.632354202e-01 -1.13305146e-01
 41 2 119662 5.5883120350516205e+04 4.7333617731824248e+04 1.3037779031298004e-14 3.0450534311446652e+04 5.9113763254044512e+04 1.7822860590700809e+03 -999 2.70911397e-01 3.609269251e-01 -1.13346688e-01
 42 2 119662 4.4523863446112155e+04 4.4563627652343021e+04 1.2779652495120213e-14 2.7360695373092061e+04 4.6955062685705278e+04 1.6357958454510842e+03 -999 2.71072005e-01 3.581368677e-01 -1.13398136e-01
 43 2 119662 3.8053086719017534e+04 4.1658379433799302e+04 1.2486456246329132e-14 2.4632757630665641e+04 3.8737273557462562e+04 1.5083343667618194e+03 -999 2.71250689e-01 3.550689083e-01 -1.13455993e-01
 44 2 119662 3.8105143047994512e+04 4.0238621987711784e+04 1.2217213953672615e-14 2.3105769816914475e+04 3.8895212772103936e+04 1.4000017599067407e+03 -999 2.71411621e-01 3.523235530e-01 -1.13508735e-01
 45 2 119662 3.9485930698444856e+04 4.0132110714839444e+04 1.1992323596399106e-14 2.2250890227132772e+04 4.1231044649479722e+04 1.2996230018887948e+03 -999 2.71547412e-01 3.500028046e-01 -1.13553989e-01
 46 2 119662 3.3697548319918445e+04 3.7705446778669451e+04 1.1775556141229995e-14 2.0807739405104912e+04 3.5585965191571842e+04 1.1764629554195681e+03 -999 2.71658600e-01 3.477112301e-01 -1.13589153e-01
 47 2 119662 2.7415010792571655e+04 3.5571883180513498e+04 1.1505079500170718e-14 1.9218110615390549e+04 2.8722673434472625e+04 1.0688248194329467e+03 -999 2.71793807e-01 3.449602635e-01 -1.13632514e-01
 48 2 119662 2.3239274183426543e+04 3.3697516233401810e+04 1.1210223809474828e-14 1.7702396059934552e+04 2.3508631042784236e+04 9.7591381331164337e+02 -999 2.71951055e-01 3.417929582e-01 -1.13683650e-01
 49 2 119662 2.2184992487065196e+04 3.2375861342343156e+04 1.0928600895811232e-14 1.6638303624397809e+04 2.2179156778556135e+04 8.9842165625565644e+02 -999 2.72100784e-01 3.387834367e-01 -1.13733284e-01
 50 2 119662 2.1931335832461555e+04 3.1521765601528059e+04 1.0667244155270460e-14 1.5891034774419904e+04 2.2129470943831348e+04 8.3224898304139924e+02 -999 2.72231315e-01 3.361332400e-01 -1.13777834e-01
 51 2 119662 1.9572843992502112e+04 3.0211023484772177e+04 1.0421119330685301e-14 1.5046470547008446e+04 1.9785748755877103e+04 7.4444639377280657e+02 -999 2.72330069e-01 3.335043108e-01 -1.13807083e-01
 52 2 119662 1.7066480428387702e+04 2.8822646903806308e+04 1.0139311369914686e-14 1.4074631104568427e+04 1.7073307381262490e+04 6.7228461786293531e+02 -999 2.72446051e-01 3.303336074e-01 -1.13840148e-01
 53 2 119662 1.5217276898703667e+04 2.7405335547601779e+04 9.8000722614123256e-15 1.3040486622745148e+04 1.4955205580450605e+04 6.1289672871229698e+02 -999 2.72575992e-01 3.266199734e-01 -1.13874744e-01
 54 2 119662 1.4284336427219845e+04 2.6214336226801435e+04 9.4590002750309257e-15 1.2147588084133633e+04 1.4008586424910358e+04 5.6393901738681279e+02 -999 2.72694754e-01 3.229689799e-01 -1.13903147e-01
 55 2 119662 1.3721698926015993e+04 2.5261810646499929e+04 9.1720017700110389e-15 1.1419846479460237e+04 1.3596172958222640e+04 5.2298919037206156e+02 -999 2.72792601e-01 3.196497660e-01 -1.13923608e-01
 56 2 119662 1.2626033901284885e+04 2.4178195284310528e+04 8.8805213602204029e-15 1.0666611766776050e+04 1.2628914978435165e+04 4.7783244944001450e+02 -999 2.72845317e-01 3.160726132e-01 -1.13907678e-01
 57 2 119662 1.1512828959354916e+04 2.2953748920547452e+04 8.5427085197774219e-15 9.8024051210049438e+03 1.1671140453186163e+04 4.4428918711176664e+02 -999 2.72897760e-01 3.115711221e-01 -1.13872085e-01
 58 2 119662 1.0684408129177204e+04 2.1704968947148431e+04 8.1857879532814835e-15 8.9434273998842855e+03 1.1070932535475995e+04 4.2099665022582701e+02 -999 2.72940634e-01 3.063391861e-01 -1.13808400e-01
 59 2 119662 1.0233009452585478e+04 2.0652699538919071e+04 7.8338689424940743e-15 8.2784448733016052e+03 1.0890420117589763e+04 4.0378980793402053e+02 -999 2.72966171e-01 3.012291995e-01 -1.13723408e-01
 60 2 119662 1.0021400101366524e+04 1.9794092483351640e+04 7.5525027491572858e-15 7.8096303981938645e+03 1.0934041430928348e+04 3.8952695668493379e+02 -999 2.72980776e-01 2.964023256e-01 -1.13626388e-01
 61 2 119662 9.6107895110596619e+03 1.8825521122238373e+04 7.2460717455217024e-15 7.3492876869556194e+03 1.0792735229299002e+04 3.7490443510610362e+02 -999 2.72964458e-01 2.905780380e-01 -1.13448239e-01
 62 2 119662 9.4074868622363265e+03 1.7763540917380116e+04 6.9411042321115589e-15 7.0228638730794019e+03 1.0829364756508150e+04 3.7293947230410754e+02 -999 2.72978397e-01 2.829575882e-01 -1.13195776e-01
 63 2 119662 9.5154716025002253e+03 1.6785373823453123e+04 6.6641646250502226e-15 6.9650068519468850e+03 1.1087948348905353e+04 3.7934120741694466e+02 -999 2.73071298e-01 2.741736450e-01 -1.12897209e-01
 64 2 119662 9.7778476762819027e+03 1.6028639601464467e+04 6.4612312336561747e-15 7.0994395207402149e+03 1.1413914045473468e+04 3.8647637839824256e+02 -999 2.73278098e-01 2.656110315e-01 -1.12630958e-01
 65 2 119662 1.0029713289447138e+04 1.5416251161272212e+04 6.3191601246724577e-15 7.2987444697250621e+03 1.1678247818856758e+04 3.9377355701568047e+02 -999 2.73554002e-01 2.573526480e-01 -1.12451562e-01
 66 2 119662 1.0077702377341151e+04 1.4559267963872840e+04 6.1671737801596494e-15 7.1351767678716578e+03 1.1691601793242395e+04 4.0744823492835803e+02 -999 2.74279337e-01 2.462348710e-01 -1.12376981e-01
 67 2 119662 1.0085272880180542e+04 1.3706609203118955e+04 6.0832962433880439e-15 6.9510452872487258e+03 1.1569353195025464e+04 4.5389368679667166e+02 -999 2.75762272e-01 2.312066732e-01 -1.12572757e-01
 68 2 119662 9.9514203579472014e+03 1.3209747036849423e+04 5.9790319112962792e-15 6.7511317500741834e+03 1.1253754839249172e+04 5.3768296313310373e+02 -999 2.77934194e-01 2.159401629e-01 -1.13284589e-01
 69 2 119662 9.6986053907669011e+03 1.3002944066315415e+04 5.8420808666827376e-15 6.6056819006543146e+03 1.0809870888051517e+04 7.3581592304551862e+02 -999 2.80456632e-01 2.018431498e-01 -1.14551165e-01
 70 2 119662 9.3688297376906012e+03 1.3006332726228555e+04 5.6150180038545367e-15 6.5771564532326875e+03 1.0266602022536341e+04 1.1881740276222076e+03 -999 2.83061238e-01 1.885241168e-01 -1.16369657e-01
 71 2 119662 8.5261373602392705e+03 1.1876666603024312e+04 5.2698697585621580e-15 6.5479925618894385e+03 9.0936510715843942e+03 2.1201168797465148e+03 -999 2.86385443e-01 1.687406031e-01 -1.20153987e-01
 72 2 119662 7.6151638565162111e+03 1.1176570569150523e+04 4.8295259904510818e-15 6.5349698035369756e+03 7.8982441659072520e+03 3.6163406825569396e+03 -999 2.87167765e-01 1.508109808e-01 -1.24377829e-01
 73 2 119662 6.9661319686735251e+03 1.0908563326419559e+04 4.3964842911836890e-15 6.5628237825430451e+03 7.0372807017977448e+03 6.1962641224732988e+03 -999 2.83947475e-01 1.364433834e-01 -1.27623890e-01
 74 2 119662 6.6592421752516866e+03 1.0908437337330733e+04 4.0397577251748096e-15 6.1314734948922051e+03 6.5633136403925664e+03 9.2941638315640503e+03 -999 2.79102696e-01 1.286371441e-01 -1.28589489e-01
 75 2 119662 6.5123709332278077e+03 1.0977053257381533e+04 3.8114814254090558e-15 5.7173529831581181e+03 6.3553896341696118e+03 1.0186111357934780e+04 -999 2.76373525e-01 1.255683721e-01 -1.28599721e-01
 76 2 119662 5.5685318341857892e+03 1.0260763163772745e+04 3.6530078110391020e-15 4.8946389125378555e+03 5.5313937430549486e+03 1.0344742062232912e+04 -999 2.68671818e-01 1.187645270e-01 -1.27798102e-01
 77 2 119662 4.8486589323225189e+03 1.0456558103485431e+04 3.5378820936028203e-15 4.1146596944699395e+03 4.8315069670240136e+03 9.2998813545787816e+03 -999 2.58269330e-01 1.109007314e-01 -1.25630654e-01
 78 2 119662 4.4138630324287806e+03 1.0170312507639112e+04 3.4117230114390109e-15 3.5133027388747973e+03 4.4060188498049374e+03 7.0060866595736807e+03 -999 2.51563813e-01 1.055818218e-01 -1.23203269e-01
 79 2 119662 4.2176990568177134e+03 9.5856427912521667e+03 3.2636985166587793e-15 3.3298854764382472e+03 4.2098521309060634e+03 5.4553277776747873e+03 -999 2.49650300e-01 1.032769615e-01 -1.22065433e-01
 80 2 119662 4.1559830752917724e+03 8.9781598084379693e+03 3.1994082786594279e-15 3.3177144102511838e+03 4.1096280933610115e+03 4.7739014975906375e+03 -999 2.48558332e-01 1.010116036e-01 -1.21042676e-01
 81 2 119662 3.6731220213453194e+03 7.7401673689175186e+03 2.5422847704403654e-14 3.3188529642599583e+03 3.6209978857163151e+03 4.9056864376081057e+03 -999 2.49711487e-01 9.725351769e-02 -1.19923128e-01
 82 2 119662 3.5162452392541945e+03 6.5814628580744038e+03 4.8628983406015125e-14 3.5104492660163633e+03 3.4054730551504240e+03 5.1548768176334352e+03 -999 2.55980616e-01 9.242923792e-02 -1.19710553e-01
 83 2 119662 3.7195920191783757e+03 6.1741856974740740e+03 5.3898493411256132e-14 3.5014537482172555e+03 3.5572020637774544e+03 6.6412882059042286e+03 -999 2.66941252e-01 8.868949038e-02 -1.21560730e-01
 84 2 119662 4.0369425226525336e+03 6.4888064845266763e+03 4.9099546280299799e-14 3.4983210375968774e+03 3.8709806541714647e+03 1.0671183594076620e+04 -999 2.78319971e-01 8.592598572e-02 -1.24392784e-01
 85 2 119662 4.1906000525593008e+03 7.0376694596763346e+03 4.2182362334638186e-14 3.4630744926882703e+03 3.9927998144356816e+03 1.6345139707589298e+04 -999 2.87264671e-01 8.410104849e-02 -1.27047903e-01
 86 2 119662 3.7934493318501618e+03 5.8320214509243806e+03 7.6300675367414717e-14 3.1263364134843418e+03 3.8310602029932734e+03 3.6476642436920003e+04 -999 3.10055027e-01 8.052397758e-02 -1.34868643e-01
 87 2 119662 3.5444876346119177e+03 6.6757855768768150e+03 1.4411421611548606e-13 2.8625497557843501e+03 3.8564218333693148e+03 6.3871584909340141e+04 -999 3.31754959e-01 7.762391649e-02 -1.43604965e-01
 88 2 119662 3.2543808795260752e+03 9.2113142734437733e+03 1.6337331420850451e-13 2.7113067040490314e+03 4.5541420888882249e+03 9.1993735820929141e+04 -999 3.41914556e-01 7.632444302e-02 -1.48076191e-01
 89 2 119662 3.0532803983544372e+03 9.2768929332509888e+03 1.6899654895039796e-13 2.6459096463874985e+03 5.2691800810151408e+03 1.8509049370935000e+05 -999 3.46977677e-01 7.569233195e-02 -1.50324082e-01
 90 2 119662 2.9140548732686407e+03 8.5996577945772769e+03 1.7165910726683256e-13 2.5900958418613964e+03 5.1854230486168262e+03 1.8508174883997085e+05 -999 3.50165960e-01 7.530216404e-02 -1.51734458e-01
 91 2 119662 2.5525501996515354e+03 3.2859654328085826e+03 2.6163655813155833e-13 2.4714566815933035e+03 2.4512560558593991e+03 7.9033128912921195e+04 -999 3.66165210e-01 7.330627320e-02 -1.58828154e-01
 92 2 119662 2.4087656216870723e+03 2.7227116714796775e+03 3.5440073009150675e-13 2.3767782497373555e+03 2.2735972713712445e+03 4.1399299149663726e+04 -999 3.81883760e-01 7.145482753e-02 -1.65671818e-01
 93 2 119662 2.3093351285860649e+03 2.7148282693545048e+03 4.5566037398087149e-13 2.3417800790242063e+03 2.3392294362012490e+03 2.9714937006152544e+04 -999 3.98066121e-01 6.967823387e-02 -1.72351575e-01
 94 2 119662 2.2051212224072683e+03 3.4351316134242416e+03 5.1736688542891208e-13 2.2720033336706119e+03 3.1977059840578668e+03 2.7366086831836517e+04 -999 4.04999017e-01 6.897173343e-02 -1.74989408e-01
 95 2 119662 2.1564118851291751e+03 3.6436290233465093e+03 5.3535352800674766e-13 2.2515858455432854e+03 3.4245648949633796e+03 2.6681847092797569e+04 -999 4.08575900e-01 6.861334494e-02 -1.76293030e-01
 96 2 119662 1.8882415070223456e+03 2.1903298043204086e+03 1.0120270808243481e-12 1.6075088451472500e+03 1.7653847851254143e+03 2.7357578232644253e+04 -999 4.42646128e-01 6.582432098e-02 -1.87246481e-01
 97 2 119662 1.8063796067476767e+03 2.0469760786108859e+03 1.6643281410145787e-12 1.2396209224768425e+03 1.7038932852357998e+03 2.3252683012865717e+04 -999 4.79974548e-01 6.341068349e-02 -1.96670536e-01
 98 2 119662 1.8704374953467795e+03 2.1027155170566339e+03 1.5885799990223643e-12 9.5651608291347156e+02 1.8338153796057129e+03 1.9647318555403577e+04 -999 5.19320652e-01 6.151134945e-02 -2.03685657e-01
 99 2 119662 2.1093421151536572e+03 3.3937177966581548e+03 1.4481848861875542e-12 8.0633679608900798e+02 2.2582638369834153e+03 1.5168116469889481e+04 -999 5.53133280e-01 6.054543850e-02 -2.07549196e-01
 100 2 119662 2.1277662852517383e+03 2.9496181196352600e+03 1.2594850358454076e-12 6.9876357239653794e+02 2.2710312525229342e+03 1.2597740988613081e+04 -999 5.67138041e-01 6.044996688e-02 -2.08537263e-01
 101 2 119662 1.7108456054689254e+03 1.5961424898791527e+03 1.6570763615167756e-12 5.0596412098430113e+02 1.6877216415524217e+03 9.8005209217633546e+03 -999 6.09055418e-01 6.105986249e-02 -2.11010135e-01
 102 2 119662 1.5915911126620801e+03 1.2917895822787682e+03 1.7279110009958088e-12 3.7241295029514049e+02 1.5766878561830790e+03 7.5877290958413905e+03 -999 6.57757753e-01 6.239349650e-02 -2.11645648e-01
 103 2 119662 1.7053025757645696e+03 1.2175329019743651e+03 1.2763984107137753e-12 2.9894687644576948e+02 1.7149151679680474e+03 6.1229589555529647e+03 -999 7.04240059e-01 6.449098633e-02 -2.09857034e-01
 104 2 119662 1.9688008597909702e+03 1.2449798527035114e+03 1.1826067704409487e-12 2.5961551428314726e+02 1.9978386702503506e+03 5.0952705669212646e+03 -999 7.39554649e-01 6.670263079e-02 -2.06692854e-01
 105 2 119662 2.0055979027543860e+03 1.2379818062265920e+03 1.2116146144891274e-12 2.3625529020467295e+02 2.0219964381741981e+03 4.4980678470125340e+03 -999 7.60753091e-01 6.823076068e-02 -2.04283571e-01
 106 2 119662 1.1721490607105079e+03 9.6557418873378253e+02 8.6132586766775005e-13 2.2817746190144331e+02 1.1429452259032730e+03 4.0587151873012349e+03 -999 8.06637325e-01 7.076154667e-02 -1.97771748e-01
 107 2 119662 8.8334895711189813e+02 8.0632118094842474e+02 1.0171090421862839e-12 1.9540399230508191e+02 8.3715452452932459e+02 3.8767586981684881e+03 -999 8.42935141e-01 7.053504345e-02 -1.92062163e-01
 108 2 119662 7.5268016724809047e+02 7.3182068003165409e+02 9.9333898367392910e-13 1.7552739533040875e+02 6.9224576527491331e+02 3.8917763471586236e+03 -999 8.69193286e-01 6.830303956e-02 -1.88939359e-01
 109 2 119662 7.0058410968752821e+02 6.9633682743401789e+02 9.8588856033481489e-13 1.6972365490717183e+02 6.3519602051383106e+02 4.1523571553558559e+03 -999 8.83067001e-01 6.636750214e-02 -1.87731768e-01
 110 2 119662 6.6956075748680360e+02 6.6448137611073832e+02 9.0081906041517756e-13 1.6879127839713300e+02 6.0042682320539063e+02 4.7744770145164521e+03 -999 8.98883434e-01 6.403458436e-02 -1.86622921e-01
 111 2 119662 6.3480942083354444e+02 8.4846579734757040e+02 1.1111420567823437e-12 1.7320144618026006e+02 5.6939542025518142e+02 7.4052250289654930e+03 -999 9.10639404e-01 6.280266457e-02 -1.86235441e-01
 112 2 119662 6.0655179062401407e+02 8.7328872685207807e+02 1.2099010945467546e-12 1.7265971973907108e+02 5.4255243060300484e+02 6.1380162538097538e+03 -999 9.23276044e-01 6.152693275e-02 -1.85684004e-01
 113 2 119662 5.8571663430037438e+02 8.0286300429600851e+02 1.2979086844844375e-12 1.7109917177583662e+02 5.2058642641404515e+02 6.2859028568036128e+03 -999 9.36622949e-01 6.022553610e-02 -1.84971936e-01
 114 2 119662 5.8664007130302912e+02 7.0217887485519816e+02 1.3830772101131144e-12 1.6939185349055029e+02 5.1931389238985787e+02 7.0436141378266384e+03 -999 9.51404415e-01 5.883221415e-02 -1.84031422e-01
 115 2 119662 5.9885568077780624e+02 6.7562151007356692e+02 1.4018391229695789e-12 1.6872029048469693e+02 5.3113006822970988e+02 7.0454364039732154e+03 -999 9.60709709e-01 5.791605531e-02 -1.83183896e-01
 116 2 119662 5.7565961200070456e+02 7.0682931644100211e+02 1.4015623872236592e-12 1.9284700060913462e+02 5.0714300921241693e+02 6.8018842690712963e+03 -999 9.71222895e-01 5.691347093e-02 -1.82320405e-01
 117 2 119662 5.8401365550372395e+02 7.5742942964597091e+02 1.7375143434699580e-12 2.5707345780991909e+02 5.1435611044454492e+02 6.8028288309060899e+03 -999 9.83732988e-01 5.598921660e-02 -1.81544180e-01
 118 2 119662 6.2428094367335314e+02 8.1647088994597539e+02 2.1239915005259776e-12 3.3000726260058485e+02 5.5251640348241665e+02 6.6961313692557860e+03 -999 9.97706553e-01 5.519538808e-02 -1.80860566e-01
 119 2 119662 6.2428094367335314e+02 8.4940579689385277e+02 2.1413334234115063e-12 3.4236963804243794e+02 5.5338862129207894e+02 6.2353288647397312e+03 -999 9.97706553e-01 5.519538808e-02 -1.80860566e-01
 120 2 119662 6.2815776713088815e+02 9.1149000879654830e+02 2.1554929368643794e-12 3.7353375161402329e+02 5.6051473871835583e+02 8.8992758696866313e+03 -999 1.00285564e+00 5.492782217e-02 -1.80503707e-01
 121 2 119662 6.1374674755556055e+02 7.7586403126713753e+02 1.6172486254541446e-12 2.7942239104113082e+02 5.4215568252305809e+02 7.1034354257988907e+03 -999 1.00450699e+00 5.472230962e-02 -1.80294445e-01
 122 2 119662 6.4816523285143876e+02 6.7215838169378253e+02 1.1600121619067540e-12 2.1391837800017191e+02 5.7396576273165874e+02 7.3558819246095809e+03 -999 1.00657842e+00 5.449651304e-02 -1.80092321e-01
 123 2 119662 7.0076064188171438e+02 6.2068013359442591e+02 9.1905471067382623e-13 1.9026391950663117e+02 6.2521487842019746e+02 7.5036068388094354e+03 -999 1.00843945e+00 5.433190138e-02 -1.79983094e-01
 124 2 119662 7.5381508409375272e+02 5.9416667014320899e+02 7.8276944016342836e-13 1.8174742597320568e+02 6.7808743206552242e+02 7.5646418931626677e+03 -999 1.01020224e+00 5.420690093e-02 -1.79939300e-01
 125 2 119662 8.0029262509283978e+02 5.8637496316310205e+02 7.1760586145190051e-13 1.8100614131869199e+02 7.2521278011131733e+02 7.6356257108070822e+03 -999 1.01163027e+00 5.411358788e-02 -1.79908601e-01
 126 2 119662 8.0074872949614939e+02 5.6858492152798976e+02 6.0555324129598548e-13 1.7673413547888615e+02 7.2766681430666949e+02 7.3663372308199805e+03 -999 1.01313475e+00 5.401401681e-02 -1.79870942e-01
 127 2 119662 8.0654761328869540e+02 5.5305867229922933e+02 5.8376192313999274e-13 1.7786727328648223e+02 7.3504250630643116e+02 7.6276703371744334e+03 -999 1.01511719e+00 5.387441372e-02 -1.79793447e-01
 128 2 119662 8.3516571612696873e+02 5.4172872056653398e+02 6.4698879772751308e-13 1.8003765417894022e+02 7.6455895989782061e+02 7.7957721700296070e+03 -999 1.01775816e+00 5.364898363e-02 -1.79586299e-01
 129 2 119662 8.7613224164910184e+02 5.3692749556848185e+02 6.8419885217007319e-13 1.8018075674985056e+02 8.0812781211466108e+02 7.9242234693920927e+03 -999 1.01937725e+00 5.343906585e-02 -1.79281040e-01
 130 2 119662 8.9849474030646934e+02 5.3377115993209031e+02 6.9907648895329321e-13 1.7752033865516816e+02 8.3785243414623187e+02 8.1353706186670606e+03 -999 1.02075436e+00 5.322039313e-02 -1.78923378e-01
 131 2 119662 8.6870259818385716e+02 5.2577210474729577e+02 5.4599284011724661e-13 1.7428388567537263e+02 8.0366506458002857e+02 8.3528616455793781e+03 -999 1.02257082e+00 5.299619675e-02 -1.78586863e-01
 132 2 119662 8.9738105077846774e+02 5.2210000328374213e+02 5.8813318154635226e-13 1.6892037063519260e+02 8.2724767758212568e+02 8.5559513088359217e+03 -999 1.02475654e+00 5.270217545e-02 -1.78119907e-01
 133 2 119662 9.2636543908257158e+02 5.1961593147861811e+02 6.8443884157988843e-13 1.5718303019283181e+02 8.6514560466043815e+02 8.5381801415908358e+03 -999 1.02696211e+00 5.240181989e-02 -1.77617983e-01
 134 2 119662 8.8554090097341930e+02 5.1533977315297739e+02 7.6091608091966778e-13 1.5230015444998438e+02 8.2294049301625944e+02 8.5940453378329494e+03 -999 1.02913239e+00 5.207619854e-02 -1.77034965e-01
 135 2 119662 9.4817696653027883e+02 5.2006820331681342e+02 9.8065597723587069e-13 1.5705686307428334e+02 8.7731984304876221e+02 8.6006509697396978e+03 -999 1.03054509e+00 5.184628720e-02 -1.76593466e-01
 136 2 119662 8.6910147112565699e+02 5.0545937229671699e+02 7.4641563308146367e-13 1.4726041800329781e+02 8.0167791495918334e+02 8.6673215477812373e+03 -999 1.03241582e+00 5.162960382e-02 -1.76203005e-01
 137 2 119662 8.1172035001247275e+02 4.9538598123704463e+02 6.7227487517390464e-13 1.4505711662416209e+02 7.4277689501480165e+02 8.5828141663664919e+03 -999 1.03470539e+00 5.125912767e-02 -1.75423437e-01
 138 2 119662 8.7198413535411908e+02 5.0158226997254729e+02 7.3079796908927331e-13 1.4049042444681427e+02 8.1218363580357902e+02 8.2870146848103996e+03 -999 1.03742209e+00 5.083018419e-02 -1.74433299e-01
 139 2 119662 7.9906913379935816e+02 4.9166784734355451e+02 7.7478578474883754e-13 1.3503443844944667e+02 7.3837098621034306e+02 8.3884712681015299e+03 -999 1.03895181e+00 5.067088098e-02 -1.74036983e-01
 140 2 119662 8.1271263491114212e+02 4.9793653314673105e+02 8.2251287472653799e-13 1.3865688056632985e+02 7.4148045352402096e+02 8.2360002428155276e+03 -999 1.04086406e+00 5.048677749e-02 -1.73560504e-01
 141 2 119662 7.2960879150027517e+02 4.7938825197764010e+02 6.7052079132342277e-13 1.2832525567374194e+02 6.5930637238816485e+02 8.1610042714984556e+03 -999 1.04297674e+00 5.028530539e-02 -1.73013878e-01