TITLE = "005.01 ALPHA 3.60 GRIDLEVEL 2"

VARIABLES = "ITERATION"  "GRID_LEVEL"  "GRID_SIZE"  "CONTINUITY"  "MOMENTUMX"  "MOMENTUMY"  "MOMENTUMZ"  "ENERGY"  "TURB1"  "TURB2"  "CL_TOT"  "CD_TOT"  "CM_TOT"

DATASETAUXDATA ParticipantID   = "005"
DATASETAUXDATA SubmissionDate  = "10-31-2024"
DATASETAUXDATA Name            = "Jeffrey A. Housman"
DATASETAUXDATA Email           = "jeffrey.a.housman@nasa.gov"
DATASETAUXDATA Institution     = "NASA Ames Research Center"
DATASETAUXDATA SolverName      = "LAVA Curvilinear"
DATASETAUXDATA BasicAlgorithm  = "RANS"
DATASETAUXDATA TurbulenceModel = "SA-neg"
DATASETAUXDATA GridId          = "Multiblock"
DATASETAUXDATA Discretization  = "Finite difference"
DATASETAUXDATA Order           = "2"
DATASETAUXDATA DistanceCalc    = "Exact"
DATASETAUXDATA Notes           = " "

ZONE T = "005.01 - Alpha 3.60 - Grid Level 2"
AUXDATA Tstatic         = "271.0"
AUXDATA Deltat          = "-999"
AUXDATA GridFileName    = "ONERA-OAT15A_230mmChord_780mmSpan_upZ_2024_06_25-Structured_23mm_Level-2.x"
AUXDATA Misc            = " "
 0 2 119662 1.7790409606718982e+05 3.6349815429902216e+05 3.0557669290377504e-14 1.5786890298348854e+05 1.8174339029576728e+05 4.8735602680588199e+05 -999 9.05962285e-03 4.530022353e-01 -5.77571129e-03
 1 2 119662 2.4210563602431971e+05 2.9222860976331763e+05 2.7494774717693570e-14 1.3095985858603615e+05 2.3542430352123181e+05 3.1451912966309406e+05 -999 5.25667732e-02 4.476940856e-01 -2.33038193e-02
 2 2 119662 2.8992946954740805e+05 2.6143375823756767e+05 2.5168148375233911e-14 1.4528432970828997e+05 2.7788064686784876e+05 2.0275439719823218e+05 -999 1.00415572e-01 4.539435807e-01 -4.19496031e-02
 3 2 119662 3.3941366182031814e+05 2.4020982748235777e+05 2.3367629115979858e-14 1.6753714595821823e+05 3.2420399299492122e+05 1.2989236362157708e+05 -999 1.41560806e-01 4.643086431e-01 -5.89131444e-02
 4 2 119662 3.8952047572103259e+05 2.2138364094829012e+05 2.1963546583594717e-14 1.9328368684287101e+05 3.7486721197508945e+05 8.2039029100613741e+04 -999 1.76758769e-01 4.771909524e-01 -7.20775891e-02
 5 2 119662 4.3682965531154827e+05 2.2122594526875461e+05 2.0853142840965963e-14 2.2231659277473914e+05 4.2652273303742852e+05 4.2320510761191814e+04 -999 2.05036629e-01 4.904834904e-01 -8.19809177e-02
 6 2 119662 3.9878105280669854e+05 2.5818008068852517e+05 1.9974065257043869e-14 2.3405786092710355e+05 3.9137039249540848e+05 3.4231013752479608e+04 -999 2.24993179e-01 4.967292156e-01 -8.94971458e-02
 7 2 119662 3.9507853352722118e+05 2.7660760646172578e+05 1.9176007533636334e-14 2.3794958853014090e+05 3.8446641719020624e+05 2.8327945300527943e+04 -999 2.40585590e-01 4.983273376e-01 -9.58511397e-02
 8 2 119662 4.2932317423610465e+05 2.7414009615259129e+05 1.8603985496306439e-14 2.3439253330476664e+05 4.3175779501579405e+05 2.4309933356900430e+04 -999 2.52234982e-01 4.940827482e-01 -1.00653742e-01
 9 2 119662 4.4897672945938393e+05 2.5444097550463004e+05 1.8194379495247135e-14 2.3491389696257305e+05 4.5507612668144854e+05 2.1511103212749931e+04 -999 2.63264629e-01 4.863794646e-01 -1.04793877e-01
 10 2 119662 4.6399500152907136e+05 2.5109033519789329e+05 1.7992295294427522e-14 2.2858926064952990e+05 4.8051614082213526e+05 1.9233233460814830e+04 -999 2.71121160e-01 4.804556903e-01 -1.07533352e-01
 11 2 119662 3.8421983691298182e+05 2.1669893660437447e+05 1.7783370214021656e-14 2.1059047897291128e+05 3.9202709621527232e+05 1.7219358711194611e+04 -999 2.80458300e-01 4.731428835e-01 -1.10835488e-01
 12 2 119662 3.6292339460615616e+05 2.1860544676823835e+05 1.7635927371638430e-14 2.0256229036461932e+05 3.6520611514037900e+05 1.5643521396526306e+04 -999 2.87918759e-01 4.672991591e-01 -1.13423503e-01
 13 2 119662 3.4437768358984613e+05 1.9291700435740355e+05 1.7596347504553138e-14 1.9262871727548764e+05 3.4337958126946678e+05 1.4321885662018034e+04 -999 2.93822788e-01 4.622271168e-01 -1.15512964e-01
 14 2 119662 3.7623786796172650e+05 2.0135622974779963e+05 1.7601622448533361e-14 1.9023595877349825e+05 3.8729519931047293e+05 1.3173697080638845e+04 -999 2.97918642e-01 4.580592142e-01 -1.17029624e-01
 15 2 119662 3.4150718265810324e+05 1.7012461182656605e+05 1.7567625325449489e-14 1.7955499898080970e+05 3.4775578253663768e+05 1.2218112395850550e+04 -999 3.00813492e-01 4.545436417e-01 -1.18176984e-01
 16 2 119662 3.1835117521225911e+05 1.7725089238481192e+05 1.7458186245860003e-14 1.7210434507264339e+05 3.2469367171881814e+05 1.1176874996196702e+04 -999 3.03327163e-01 4.508530119e-01 -1.19240915e-01
 17 2 119662 2.8327840640832682e+05 1.6954368811155902e+05 1.7332647225238863e-14 1.5819753589262633e+05 2.8869504814815102e+05 1.0281622864317047e+04 -999 3.05844427e-01 4.467560649e-01 -1.20328373e-01
 18 2 119662 2.9363144840192248e+05 1.6479491143254243e+05 1.7225365155008900e-14 1.5453773726928499e+05 2.9867955160679482e+05 9.5074881176746421e+03 -999 3.08728571e-01 4.415958869e-01 -1.21559847e-01
 19 2 119662 2.6629232165579143e+05 1.4643563737317160e+05 1.7113438009973696e-14 1.4341737096305069e+05 2.7109670214677422e+05 8.8540119172258601e+03 -999 3.10416194e-01 4.381531438e-01 -1.22238933e-01
 20 2 119662 3.1029088919185457e+05 1.7149241546401154e+05 1.6995673393733633e-14 1.4878241288482514e+05 3.2536616087338148e+05 8.2823795581930663e+03 -999 3.12260864e-01 4.339570091e-01 -1.22940824e-01
 21 2 119662 2.5793309245073522e+05 1.5850107178645043e+05 1.6858454956045015e-14 1.3325324654634815e+05 2.7305473905211699e+05 7.6491715656616398e+03 -999 3.13478512e-01 4.303390683e-01 -1.23367533e-01
 22 2 119662 2.1703432932393972e+05 1.2999256106245519e+05 1.6693568986223775e-14 1.1995826726077584e+05 2.2207879221099778e+05 7.0779101430108649e+03 -999 3.14783102e-01 4.259221845e-01 -1.23809675e-01
 23 2 119662 1.9969578419789617e+05 1.2473189899172691e+05 1.6541644567538716e-14 1.1175741118926140e+05 2.0148186123737105e+05 6.5773332173404442e+03 -999 3.15826677e-01 4.218749069e-01 -1.24154541e-01
 24 2 119662 2.2669308447612694e+05 1.2727665352589956e+05 1.6420416069538570e-14 1.1092737566376910e+05 2.3583652529170469e+05 6.1417704658990860e+03 -999 3.16770301e-01 4.178558183e-01 -1.24462425e-01
 25 2 119662 2.0376543531934911e+05 1.0626429548831313e+05 1.6345091541279010e-14 1.0334995430698489e+05 2.1026505183172543e+05 5.7658991475122812e+03 -999 3.17385133e-01 4.150082358e-01 -1.24662056e-01
 26 2 119662 1.8251839430838550e+05 1.0721918307503832e+05 1.6197393630034641e-14 9.6562822884659254e+04 1.8939425021927420e+05 5.3184142755404946e+03 -999 3.17949528e-01 4.118640965e-01 -1.24838951e-01
 27 2 119662 1.5646738610623378e+05 1.0098051001844349e+05 1.6007663382751970e-14 8.7028135533640219e+04 1.6171705476195342e+05 4.9251333728128911e+03 -999 3.18578004e-01 4.081562169e-01 -1.25037200e-01
 28 2 119662 1.4685605214765924e+05 9.4474382772501747e+04 1.5808550981593209e-14 8.0089537990398283e+04 1.4951221521030093e+05 4.5812097002197143e+03 -999 3.19189112e-01 4.043183068e-01 -1.25232985e-01
 29 2 119662 1.5665994868387666e+05 9.1128919874052342e+04 1.5615326288317414e-14 7.7485145153682213e+04 1.6054416027073996e+05 4.2765524788451185e+03 -999 3.19729513e-01 4.007103827e-01 -1.25409118e-01
 30 2 119662 1.4905940498808594e+05 8.5056213754140801e+04 1.5482564505524456e-14 7.3319648086701141e+04 1.5557403202209366e+05 4.0141919252011385e+03 -999 3.20074337e-01 3.982666619e-01 -1.25522216e-01
 31 2 119662 1.2770726491305829e+05 7.9270009358285039e+04 1.5291459728098007e-14 6.7049045498901774e+04 1.3401182317278106e+05 3.7102022197141978e+03 -999 3.20410400e-01 3.953942849e-01 -1.25626740e-01
 32 2 119662 1.0659696056412566e+05 7.4907721812909862e+04 1.5048146146609836e-14 6.0204162923075164e+04 1.1051651369970759e+05 3.4333587599386360e+03 -999 3.20797419e-01 3.919772079e-01 -1.25746535e-01
 33 2 119662 9.8209437190064331e+04 7.0574771430091409e+04 1.4802877474580762e-14 5.4970681058900700e+04 9.9755079784947084e+04 3.1892965534047094e+03 -999 3.21168745e-01 3.885652267e-01 -1.25861199e-01
 34 2 119662 1.0669819982772204e+05 7.0307103300085422e+04 1.4582855652661328e-14 5.2930745102310604e+04 1.1027659338529392e+05 2.9768086219193524e+03 -999 3.21490715e-01 3.854800392e-01 -1.25960384e-01
 35 2 119662 1.0356860129904821e+05 6.4746378010688437e+04 1.4414023144077774e-14 5.0765838667617616e+04 1.0668723746350023e+05 2.7959163636964850e+03 -999 3.21727920e-01 3.831152335e-01 -1.26032972e-01
 36 2 119662 8.8695846821336236e+04 6.3385651370450592e+04 1.4217188449133141e-14 4.6356006040120745e+04 9.3362858599749452e+04 2.5837128173335609e+03 -999 3.21932735e-01 3.806272586e-01 -1.26089963e-01
 37 2 119662 7.1757537587340397e+04 5.7959400061385830e+04 1.3980126275388239e-14 4.1149913884228299e+04 7.5403254700793084e+04 2.3932528534896392e+03 -999 3.22169529e-01 3.777479689e-01 -1.26155870e-01
 38 2 119662 6.2630161072400333e+04 5.2920478167979170e+04 1.3703764064982641e-14 3.6743079417949928e+04 6.3589391007860962e+04 2.2198538916565763e+03 -999 3.22429721e-01 3.745882242e-01 -1.26228518e-01
 39 2 119662 6.5610372302106582e+04 5.1436870889281927e+04 1.3434203222235562e-14 3.4551752427881569e+04 6.7294903362002224e+04 2.0650000301212749e+03 -999 3.22678230e-01 3.715691534e-01 -1.26298411e-01
 40 2 119662 6.5141500679661287e+04 4.9660648010512727e+04 1.3241681325792106e-14 3.3128206906338266e+04 6.7602029636571620e+04 1.9332069001923248e+03 -999 3.22858991e-01 3.693555186e-01 -1.26349802e-01
 41 2 119662 5.5497442404969886e+04 4.7184892774198859e+04 1.3029283521320689e-14 3.0437819249816421e+04 5.8675999067527293e+04 1.7682883404718561e+03 -999 3.23016890e-01 3.670306478e-01 -1.26390962e-01
 42 2 119662 4.4272162661221540e+04 4.4437404627844582e+04 1.2771083750869102e-14 2.7366775783341269e+04 4.6696907804994284e+04 1.6223131843512763e+03 -999 3.23208033e-01 3.642552072e-01 -1.26441563e-01
 43 2 119662 3.7715919349715441e+04 4.1505714159122661e+04 1.2476289448626244e-14 2.4601021350640098e+04 3.8394459341289548e+04 1.4951779284375032e+03 -999 3.23424889e-01 3.611441672e-01 -1.26499891e-01
 44 2 119662 3.7734890880617757e+04 4.0018088039732262e+04 1.2205129551699683e-14 2.3045418216879410e+04 3.8517200167953037e+04 1.3869634999026655e+03 -999 3.23620307e-01 3.583564512e-01 -1.26553520e-01
 45 2 119662 3.8738052267361782e+04 3.9702997585226003e+04 1.1975966245018148e-14 2.2154912146314131e+04 4.0380432428219407e+04 1.2865706720266573e+03 -999 3.23782674e-01 3.560301588e-01 -1.26599316e-01
 46 2 119662 3.3208893703213653e+04 3.7427967164392197e+04 1.1761257072866676e-14 2.0732514428875682e+04 3.4996976658386229e+04 1.1635518960792297e+03 -999 3.23916222e-01 3.537352983e-01 -1.26633977e-01
 47 2 119662 2.7063532463036576e+04 3.5372439305294640e+04 1.1488682209296282e-14 1.9139934976756686e+04 2.8300135525714515e+04 1.0561405939332731e+03 -999 3.24080558e-01 3.509498868e-01 -1.26677428e-01
 48 2 119662 2.2982899112384577e+04 3.3524034797731249e+04 1.1191790912417326e-14 1.7625115822349911e+04 2.3226255892162073e+04 9.6422405082533510e+02 -999 3.24270171e-01 3.477660525e-01 -1.26728733e-01
 49 2 119662 2.1910102643553932e+04 3.2199046564714205e+04 1.0906754583450403e-14 1.6561049370176239e+04 2.1899895123687013e+04 8.8749712173257046e+02 -999 3.24448205e-01 3.447729832e-01 -1.26778577e-01
 50 2 119662 2.1592180411437836e+04 3.1290649045150323e+04 1.0642935388919448e-14 1.5802747598158312e+04 2.1736030353463662e+04 8.2170362439488406e+02 -999 3.24603502e-01 3.421219580e-01 -1.26824173e-01
 51 2 119662 1.9319774742905509e+04 3.0020332533254208e+04 1.0404701577816098e-14 1.4961426007233673e+04 1.9488445637620553e+04 7.3468952425773057e+02 -999 3.24722731e-01 3.394898058e-01 -1.26853218e-01
 52 2 119662 1.6871376784642740e+04 2.8639091758428258e+04 1.0118473350761938e-14 1.3980839295833055e+04 1.6844190456102198e+04 6.6346944107275272e+02 -999 3.24864931e-01 3.362733624e-01 -1.26886546e-01
 53 2 119662 1.5076218955289116e+04 2.7236375949836154e+04 9.7787520669813443e-15 1.2945675317449632e+04 1.4799034935777741e+04 6.0502812262981195e+02 -999 3.25022680e-01 3.325374132e-01 -1.26921290e-01
 54 2 119662 1.4155750210678594e+04 2.6048774765839818e+04 9.4283368558470073e-15 1.2047423782596345e+04 1.3875086196576471e+04 5.5669641851035328e+02 -999 3.25166566e-01 3.288484888e-01 -1.26950320e-01
 55 2 119662 1.3603314855333536e+04 2.5096160379934758e+04 9.1534481877423495e-15 1.1316505436835483e+04 1.3478222536089086e+04 5.1649361540984444e+02 -999 3.25283748e-01 3.254937330e-01 -1.26971750e-01
 56 2 119662 1.2540710285261819e+04 2.4023656218999498e+04 8.8578115836463793e-15 1.0567970468179770e+04 1.2543740029422888e+04 4.7231868873261607e+02 -999 3.25346384e-01 3.218982757e-01 -1.26953288e-01
 57 2 119662 1.1465303827571650e+04 2.2809462530944544e+04 8.5150144295783281e-15 9.7128252479190160e+03 1.1622799289063332e+04 4.3966381213928531e+02 -999 3.25407300e-01 3.173712481e-01 -1.26913485e-01
 58 2 119662 1.0669828447184454e+04 2.1567336618708207e+04 8.1632103282912100e-15 8.8692019260004963e+03 1.1052306804532034e+04 4.1725784086806425e+02 -999 3.25453030e-01 3.120909091e-01 -1.26843347e-01
 59 2 119662 1.0242972183993121e+04 2.0521303707839805e+04 7.8145444170394517e-15 8.2146867585035252e+03 1.0889471830548728e+04 4.0103071850034132e+02 -999 3.25472007e-01 3.069299430e-01 -1.26750632e-01
 60 2 119662 1.0050689116896878e+04 1.9670283857628048e+04 7.5222000285614970e-15 7.7591045740552718e+03 1.0944907521255751e+04 3.8742787648343818e+02 -999 3.25471223e-01 3.020679013e-01 -1.26645665e-01
 61 2 119662 9.6588587703855665e+03 1.8704658304312808e+04 7.2348796030107316e-15 7.3125052328511156e+03 1.0818280061998750e+04 3.7398184170230513e+02 -999 3.25412725e-01 2.961743577e-01 -1.26450464e-01
 62 2 119662 9.4708095132133840e+03 1.7641770366637837e+04 6.9262068515161283e-15 7.0054889248315249e+03 1.0867489198433361e+04 3.7332301531472683e+02 -999 3.25356119e-01 2.884098236e-01 -1.26169158e-01
 63 2 119662 9.5778187351710058e+03 1.6673084411044238e+04 6.6547243619613561e-15 6.9699555022269278e+03 1.1122844402917610e+04 3.8064133609546883e+02 -999 3.25345790e-01 2.795331680e-01 -1.25834027e-01
 64 2 119662 9.8328753522752068e+03 1.5919366896766936e+04 6.4435986379990104e-15 7.1261087073907102e+03 1.1441504387771251e+04 3.8891889788947742e+02 -999 3.25428032e-01 2.707986486e-01 -1.25524425e-01
 65 2 119662 1.0072818193488252e+04 1.5323244998264630e+04 6.3060045622603676e-15 7.3376008895516634e+03 1.1693251601262449e+04 3.9665839488179898e+02 -999 3.25559069e-01 2.625175047e-01 -1.25305767e-01
 66 2 119662 1.0108156205081683e+04 1.4464814656659555e+04 6.1636296000531136e-15 7.1871632340292790e+03 1.1692871151001193e+04 4.1174717230569769e+02 -999 3.26048734e-01 2.511834466e-01 -1.25160429e-01
 67 2 119662 1.0102231824347940e+04 1.3633333165799702e+04 6.0808560921585000e-15 7.0229799145562301e+03 1.1555033021663361e+04 4.5952203588338000e+02 -999 3.27172128e-01 2.360394606e-01 -1.25252201e-01
 68 2 119662 9.9587332089392276e+03 1.3169555183760973e+04 5.9869168372978789e-15 6.8410310342902058e+03 1.1226991515781423e+04 5.4646554146260416e+02 -999 3.28923443e-01 2.205798089e-01 -1.25841438e-01
 69 2 119662 9.6949625387147153e+03 1.3006894306945444e+04 5.8481544835601065e-15 6.7229606137364408e+03 1.0769694274190415e+04 7.5502993928055378e+02 -999 3.30974384e-01 2.063453722e-01 -1.26975182e-01
 70 2 119662 9.3614651891178910e+03 1.3072540760718211e+04 5.6242894937429003e-15 6.7254222095686773e+03 1.0217194356121998e+04 1.2291697653473188e+03 -999 3.33021798e-01 1.929491590e-01 -1.28635411e-01
 71 2 119662 8.5068010679551498e+03 1.1933067992902506e+04 5.2399164904800960e-15 6.7422607925057300e+03 9.0380610569895252e+03 2.1985600276260575e+03 -999 3.35230240e-01 1.730369547e-01 -1.32067755e-01
 72 2 119662 7.6186422798888143e+03 1.1273907473612340e+04 4.8297563680233154e-15 6.7543155786498937e+03 7.8717941451922134e+03 3.7535315180466559e+03 -999 3.34585806e-01 1.553378316e-01 -1.35667512e-01
 73 2 119662 7.0098817413659626e+03 1.1074068393621303e+04 4.3767003973013228e-15 6.7907021029645148e+03 7.0530310070307514e+03 6.5189977508585780e+03 -999 3.29942614e-01 1.410607656e-01 -1.38080017e-01
 74 2 119662 6.7131852604932119e+03 1.1094378258543586e+04 4.0058097432735104e-15 6.3341960064199093e+03 6.6051620124391939e+03 9.3508619743917898e+03 -999 3.24908414e-01 1.341038835e-01 -1.38351545e-01
 75 2 119662 6.5668199108964109e+03 1.1171002393197108e+04 3.8106508546459919e-15 5.9259261872144907e+03 6.4015230597219243e+03 1.0005906603780124e+04 -999 3.22067017e-01 1.310923291e-01 -1.38118128e-01
 76 2 119662 5.6483278667172317e+03 1.0453582608627978e+04 3.6443992533060584e-15 5.1350412997458870e+03 5.6094090417875259e+03 9.9514821510389738e+03 -999 3.14235523e-01 1.243198887e-01 -1.36767055e-01
 77 2 119662 4.9088904162115014e+03 1.0752265623178351e+04 3.5508860364317146e-15 4.3578011341583024e+03 4.8886160556081195e+03 8.9421891474835629e+03 -999 3.02847487e-01 1.156418527e-01 -1.33671262e-01
 78 2 119662 4.5105432855308973e+03 1.0465415834262792e+04 3.3777243080937137e-15 3.7925315065842747e+03 4.5078511415022022e+03 6.6473131606434508e+03 -999 2.96978255e-01 1.108584693e-01 -1.31016597e-01
 79 2 119662 4.2844009329480004e+03 9.8689084574216522e+03 3.2503956962629992e-15 3.5316036299428761e+03 4.2844746524736447e+03 5.1334977874697388e+03 -999 2.94542500e-01 1.080421237e-01 -1.29344007e-01
 80 2 119662 4.2143981682665899e+03 9.2419928460142328e+03 3.2019109135420023e-15 3.4543003751203150e+03 4.1796507961871002e+03 4.4957263364654773e+03 -999 2.93241099e-01 1.054438940e-01 -1.27874889e-01
 81 2 119662 3.7351746217507302e+03 7.9880171975012108e+03 3.2990779394870980e-15 3.4154581340087884e+03 3.6885630722236451e+03 4.7119924701929467e+03 -999 2.94335064e-01 1.015769718e-01 -1.26190167e-01
 82 2 119662 3.5400836426211627e+03 6.7788877945794766e+03 3.4894083102265924e-15 3.5957280705979497e+03 3.4385420045820833e+03 5.0767681160153888e+03 -999 3.00342678e-01 9.669570947e-02 -1.25109259e-01
 83 2 119662 3.6480509554949977e+03 6.2387265038235419e+03 3.5990123376202919e-15 3.5746378079436727e+03 3.4865388018551043e+03 6.2362483088681938e+03 -999 3.10623685e-01 9.305313470e-02 -1.26025102e-01
 84 2 119662 3.9587065073918588e+03 6.3264243252025490e+03 3.5918714750058670e-15 3.5278512256394602e+03 3.7794176679012767e+03 8.3911889732306026e+03 -999 3.21951491e-01 9.022329347e-02 -1.28075851e-01
 85 2 119662 4.0806354129689389e+03 6.6053890679751139e+03 3.4628358640040300e-15 3.4797410460919345e+03 3.8904848355182153e+03 1.2504370248242514e+04 -999 3.29681304e-01 8.861877508e-02 -1.29881228e-01
 86 2 119662 3.5801135071590247e+03 5.5875354247521173e+03 3.5892768892670255e-15 3.2079030296893911e+03 3.5529300197426214e+03 2.3039410759838556e+04 -999 3.49324520e-01 8.545480201e-02 -1.35320929e-01
 87 2 119662 3.5720660696200148e+03 5.8559831879390904e+03 3.6844013807204172e-15 3.0359929552316867e+03 3.6700022466295063e+03 4.5296432226088036e+04 -999 3.72398802e-01 8.231268890e-02 -1.42867590e-01
 88 2 119662 3.5324288248070202e+03 7.8655357497548302e+03 3.6114612155654455e-15 2.8453809167909853e+03 4.5027160657958493e+03 7.9342362450259650e+04 -999 3.89972442e-01 8.023357488e-02 -1.49411185e-01
 89 2 119662 3.2567373590358384e+03 7.7740270509489656e+03 3.4141164381974499e-15 2.7329332612190728e+03 5.0592652623647427e+03 1.5325652127507815e+05 -999 3.96858221e-01 7.949516913e-02 -1.52090514e-01
 90 2 119662 3.0683038683549439e+03 7.1793271665180746e+03 3.4673707063794156e-15 2.6549663524309708e+03 5.0819858746836890e+03 1.4804849224534212e+05 -999 4.01202264e-01 7.904898331e-02 -1.53781272e-01
 91 2 119662 2.5843464979517826e+03 3.3323396550836046e+03 5.6414580782578359e-14 2.4648235606600506e+03 2.4816518489590158e+03 1.4905500198848872e+05 -999 4.19965127e-01 7.713202052e-02 -1.61074405e-01
 92 2 119662 2.3883321922594687e+03 2.6921285712156978e+03 1.1266701346126996e-13 2.3347958628967849e+03 2.2806368185301831e+03 5.7400923898285364e+04 -999 4.38707935e-01 7.546785812e-02 -1.68256422e-01
 93 2 119662 2.2416718153598426e+03 2.5902408150406563e+03 1.5755954259959672e-13 2.2874021237178235e+03 2.4384057053922256e+03 3.1988054623486238e+04 -999 4.57950713e-01 7.394687207e-02 -1.75285871e-01
 94 2 119662 2.1374503923868965e+03 2.8875496781688112e+03 1.6904627218510389e-13 2.2003914799008489e+03 4.3497472519913981e+03 2.6541365172948288e+04 -999 4.66193218e-01 7.336673777e-02 -1.78063805e-01
 95 2 119662 2.0969578807580888e+03 2.8266335868507576e+03 1.7171916219328671e-13 2.1584621340117724e+03 4.2732524057479450e+03 2.5371169276417433e+04 -999 4.69598742e-01 7.313687733e-02 -1.79163795e-01
 96 2 119662 1.8722015014708516e+03 2.0862984026069180e+03 2.8119850522867352e-13 1.6060982664841410e+03 1.7558744993184309e+03 2.4689423516732484e+04 -999 5.02771029e-01 7.130650988e-02 -1.88968786e-01
 97 2 119662 1.7826284841038239e+03 1.9852695554749180e+03 2.5852383645017324e-13 1.2879454005281511e+03 1.6733449950786298e+03 2.2429000708560448e+04 -999 5.38934933e-01 6.991435080e-02 -1.97762625e-01
 98 2 119662 1.7639976759206222e+03 2.1636955999851207e+03 1.4983839661631131e-13 1.0089207094404778e+03 1.7300712739319415e+03 2.0836720519116254e+04 -999 5.76827851e-01 6.896598825e-02 -2.04764118e-01
 99 2 119662 1.7540780120016129e+03 3.2608905202234814e+03 8.9194075433727554e-14 8.4696295393651837e+02 2.0584290986108526e+03 1.6446019476577283e+04 -999 6.01720139e-01 6.872382040e-02 -2.07935501e-01
 100 2 119662 1.7240054063307678e+03 3.3485036516859759e+03 6.7769552715233831e-14 7.3996997978331592e+02 2.3874990594689748e+03 1.3794809756191404e+04 -999 6.14541417e-01 6.875623208e-02 -2.09172482e-01
 101 2 119662 1.5448751697568800e+03 1.4705764684453275e+03 4.4498511470381447e-14 5.4024575273605728e+02 1.5003026846065884e+03 1.0764227137993075e+04 -999 6.69628871e-01 7.001764408e-02 -2.13578949e-01
 102 2 119662 1.4364967378945271e+03 1.2668708186989229e+03 4.0639056532332960e-14 3.8424932424794969e+02 1.4027030362716207e+03 8.5951767761480223e+03 -999 7.22264168e-01 7.207341442e-02 -2.14530169e-01
 103 2 119662 1.4637713916549912e+03 1.1658827788232500e+03 5.3269388068978079e-14 3.0851266997367526e+02 1.4355744432818658e+03 6.9450599310746966e+03 -999 7.71440067e-01 7.493415833e-02 -2.12931562e-01
 104 2 119662 1.5910075089779200e+03 1.1398431255141641e+03 5.8292085598201587e-14 2.5246733535430468e+02 1.5714251289074473e+03 5.9240279471765843e+03 -999 8.15421682e-01 7.816123207e-02 -2.09496906e-01
 105 2 119662 1.6777812644931764e+03 1.1344015439613802e+03 7.2096733761440382e-14 2.3591306899921014e+02 1.6521888318075244e+03 5.1678618820348902e+03 -999 8.50563888e-01 8.094952092e-02 -2.05496973e-01
 106 2 119662 1.0033326941053466e+03 8.8370626393661610e+02 9.4754534751767193e-14 2.0637821309662763e+02 9.5277682504749396e+02 4.6531837464731361e+03 -999 9.00596292e-01 8.224470598e-02 -1.98503122e-01
 107 2 119662 7.9962621747935555e+02 7.6645177267288864e+02 7.7110552312297588e-14 2.0233231261605701e+02 7.2674909490887990e+02 4.4060868412999662e+03 -999 9.44273442e-01 7.973805875e-02 -1.94245022e-01
 108 2 119662 7.1204634818717170e+02 7.2444955607642419e+02 5.1446996738956519e-14 1.8931083693970473e+02 6.3392680020439445e+02 4.4784695343945859e+03 -999 9.74362166e-01 7.652354683e-02 -1.92795208e-01
 109 2 119662 6.7935884227628617e+02 7.2038629367749718e+02 5.9933947822099975e-14 1.8599221030255521e+02 6.0209018107523445e+02 5.4381606660848984e+03 -999 9.94714640e-01 7.431536916e-02 -1.92143064e-01
 110 2 119662 6.6841057367282315e+02 7.5566172203029907e+02 6.4737627893848979e-14 1.8558862303473364e+02 5.9228506633896757e+02 7.1089601999518436e+03 -999 1.00569180e+00 7.316775006e-02 -1.91671057e-01
 111 2 119662 6.4082689219101496e+02 1.0231767932455974e+03 3.0182967231635256e-13 1.9683773952522790e+02 5.7428113419085423e+02 1.2473663422516200e+04 -999 1.01749540e+00 7.236588589e-02 -1.91234075e-01
 112 2 119662 6.2577195128073436e+02 1.0465451336359347e+03 5.5029865874387515e-13 2.0409478130825886e+02 5.6017613089853330e+02 1.0174079905530300e+04 -999 1.03057742e+00 7.152565509e-02 -1.90709782e-01
 113 2 119662 6.3086071936632788e+02 9.3020806412622665e+02 7.8321958392869439e-13 2.0381862046071114e+02 5.5907225547568066e+02 9.9142877312992059e+03 -999 1.04338790e+00 7.071304536e-02 -1.90055131e-01
 114 2 119662 6.4543039031894045e+02 8.5720402567825795e+02 8.3621051848822584e-13 2.0303654088531727e+02 5.7003498099429123e+02 1.0016583877297913e+04 -999 1.05351882e+00 7.001500071e-02 -1.89286297e-01
 115 2 119662 6.7295731046677713e+02 8.2522418425926423e+02 7.6325691454169284e-13 2.0085755670017190e+02 5.9710723788604912e+02 1.0219697548630573e+04 -999 1.06221978e+00 6.939110692e-02 -1.88495784e-01
 116 2 119662 6.7295731046677713e+02 8.7100649499984945e+02 7.8960124731937158e-13 2.0400266102768830e+02 5.9813008193764438e+02 8.1191413973296358e+03 -999 1.06221978e+00 6.939110692e-02 -1.88495784e-01
 117 2 119662 6.7884402876312765e+02 8.9313964774981787e+02 7.8989241294844211e-13 2.1723659069470477e+02 6.0529160645736806e+02 8.9396695413114830e+03 -999 1.06443619e+00 6.905261835e-02 -1.88081936e-01
 118 2 119662 6.8145384872132377e+02 8.3121357628387341e+02 6.7964723414334990e-13 2.0002862277703525e+02 6.0508773704127395e+02 9.9734604038385824e+03 -999 1.06594373e+00 6.893580366e-02 -1.88069503e-01
 119 2 119662 7.3836860381802967e+02 7.6743297766202488e+02 5.5874245661567351e-13 1.9166373508467470e+02 6.5592761577300382e+02 9.4301964975501887e+03 -999 1.06805861e+00 6.878340983e-02 -1.88076717e-01
 120 2 119662 8.3889003850780477e+02 7.2046759001560190e+02 4.5231846128761213e-13 1.9544693153020825e+02 7.5217897512102593e+02 1.0176000891382744e+04 -999 1.07073623e+00 6.862178162e-02 -1.88149448e-01
 121 2 119662 8.6296973599113721e+02 6.8490261374730642e+02 3.6087948302527351e-13 1.9389572660284801e+02 7.7762299619844828e+02 1.0210348011636135e+04 -999 1.07316901e+00 6.847355157e-02 -1.88211770e-01
 122 2 119662 8.7342648229739041e+02 6.5525230407255367e+02 2.9303367627723317e-13 1.9509960925505368e+02 7.8960777201782048e+02 1.0318510194241866e+04 -999 1.07575569e+00 6.830578130e-02 -1.88240693e-01
 123 2 119662 8.8113245216591508e+02 6.2976339374044039e+02 2.4513826640000600e-13 1.9713164741918712e+02 7.9702148328985015e+02 1.0292734288048901e+04 -999 1.07849427e+00 6.810393203e-02 -1.88192516e-01
 124 2 119662 9.1231661493167701e+02 6.1606639622252862e+02 2.1488569941810610e-13 1.9719881436115244e+02 8.2737785893469902e+02 1.0243519994911510e+04 -999 1.08120282e+00 6.788601227e-02 -1.88070292e-01
 125 2 119662 9.3262605173284965e+02 6.0483504368922081e+02 2.0193004023189158e-13 1.9451678517613598e+02 8.5048777649654198e+02 1.0292891113393329e+04 -999 1.08274858e+00 6.772208551e-02 -1.87896774e-01
 126 2 119662 9.0951320445096940e+02 5.9079700432636776e+02 1.8645120814084720e-13 1.9095784451082548e+02 8.2739477048470087e+02 1.0361954618428494e+04 -999 1.08477288e+00 6.753991780e-02 -1.87723940e-01
 127 2 119662 9.2950583525553020e+02 5.7834064629654176e+02 1.7314332653738520e-13 1.8844556680543897e+02 8.4216226609837122e+02 1.0321221409833914e+04 -999 1.08779092e+00 6.726087893e-02 -1.87423151e-01
 128 2 119662 1.0130509016589348e+03 5.7662533495768650e+02 1.6149542863428300e-13 1.8003864177640534e+02 9.2779931092932111e+02 1.0259888417558184e+04 -999 1.09087213e+00 6.693598174e-02 -1.86968426e-01
 129 2 119662 1.0214460751244234e+03 5.7189293336145170e+02 1.5488314332048408e-13 1.6843523343778202e+02 9.4469190597301053e+02 1.0235159729802572e+04 -999 1.09292347e+00 6.663028850e-02 -1.86402610e-01
 130 2 119662 1.0064497142472163e+03 5.7069822507753634e+02 1.5133934659530934e-13 1.6706147860427166e+02 9.2077079574612378e+02 1.0203438200905475e+04 -999 1.09525897e+00 6.625766393e-02 -1.85638826e-01
 131 2 119662 1.0116515138799141e+03 5.6524252157174271e+02 1.4588840304047284e-13 1.6310883733074729e+02 9.1383252522419116e+02 1.0162022429205570e+04 -999 1.09771188e+00 6.599786547e-02 -1.85111864e-01
 132 2 119662 1.0071706307201438e+03 5.5970599992325810e+02 1.4617780273042695e-13 1.5131668604172549e+02 9.1414978444051985e+02 1.0040864614495484e+04 -999 1.10099138e+00 6.571721729e-02 -1.84532245e-01
 133 2 119662 9.4414480251910970e+02 5.4985085844494915e+02 1.3646156681108658e-13 1.5256034972381681e+02 8.4946014157240995e+02 1.0007451141861391e+04 -999 1.10466551e+00 6.546124228e-02 -1.83979712e-01
 134 2 119662 1.0669779098586732e+03 5.7304268223685790e+02 1.3316918069813006e-13 1.5993150084475582e+02 9.7492226226473224e+02 9.9329881536442881e+03 -999 1.10811078e+00 6.524712639e-02 -1.83461952e-01
 135 2 119662 1.0253635057455103e+03 5.6535950717824926e+02 1.3343499996643514e-13 1.4937920174733426e+02 9.4929548469614099e+02 9.8699713734556917e+03 -999 1.10988415e+00 6.513548293e-02 -1.83144437e-01
 136 2 119662 9.4333533951173968e+02 5.5711389754052834e+02 1.2573107286265547e-13 1.6312933481573535e+02 8.5500483962703697e+02 9.8074077463661106e+03 -999 1.11213799e+00 6.503250477e-02 -1.82818406e-01
 137 2 119662 9.5823242420650638e+02 5.5303852030120561e+02 1.2065917563013554e-13 1.6276357439215235e+02 8.6850812761299289e+02 9.7439233103431252e+03 -999 1.11529395e+00 6.496601256e-02 -1.82551123e-01
 138 2 119662 8.7205311263920657e+02 5.3147876169821541e+02 1.1791009592992929e-13 1.5239346803068733e+02 8.0074317980238663e+02 9.6825470734131577e+03 -999 1.11816797e+00 6.493701419e-02 -1.82389930e-01
 139 2 119662 7.9871138072547512e+02 5.1063027045385888e+02 1.1729100421794310e-13 1.5860505222782427e+02 7.1793114648244466e+02 9.6369173751954932e+03 -999 1.12059667e+00 6.496571115e-02 -1.82407158e-01
 140 2 119662 8.5952405901284146e+02 5.1193039261470022e+02 1.1485650217671099e-13 1.5143528547134949e+02 7.8597626901214858e+02 9.5984382254534557e+03 -999 1.12273718e+00 6.498875164e-02 -1.82407419e-01
 141 2 119662 7.2646006895599862e+02 4.8764604775244811e+02 1.4666989776647271e-13 1.5815278935092513e+02 6.5217922630170949e+02 9.5950207302209001e+03 -999 1.12477665e+00 6.487423949e-02 -1.81981876e-01