TITLE = "005.01 ALPHA 1.36 GRIDLEVEL 3"

VARIABLES = "ITERATION"  "GRID_LEVEL"  "GRID_SIZE"  "CONTINUITY"  "MOMENTUMX"  "MOMENTUMY"  "MOMENTUMZ"  "ENERGY"  "TURB1"  "TURB2"  "CL_TOT"  "CD_TOT"  "CM_TOT"

DATASETAUXDATA ParticipantID   = "005"
DATASETAUXDATA SubmissionDate  = "10-31-2024"
DATASETAUXDATA Name            = "Jeffrey A. Housman"
DATASETAUXDATA Email           = "jeffrey.a.housman@nasa.gov"
DATASETAUXDATA Institution     = "NASA Ames Research Center"
DATASETAUXDATA SolverName      = "LAVA Curvilinear"
DATASETAUXDATA BasicAlgorithm  = "RANS"
DATASETAUXDATA TurbulenceModel = "SA-neg"
DATASETAUXDATA GridId          = "Multiblock"
DATASETAUXDATA Discretization  = "Finite difference"
DATASETAUXDATA Order           = "2"
DATASETAUXDATA DistanceCalc    = "Exact"
DATASETAUXDATA Notes           = " "

ZONE T = "005.01 - Alpha 1.36 - Grid Level 3"
AUXDATA Tstatic         = "271.0"
AUXDATA Deltat          = "-999"
AUXDATA GridFileName    = "ONERA-OAT15A_230mmChord_780mmSpan_upZ_2024_06_25-Structured_23mm_Level-3.x"
AUXDATA Misc            = " "
 0 3 234820 2.5299582702661317e+05 6.2202597146477166e+05 4.4402872969810046e-14 2.1647130657414327e+05 2.5218355891278238e+05 9.7953858340802894e+05 -999 4.82333469e-03 6.035475685e-01 -4.21284459e-04
 1 3 234820 3.6178608804603951e+05 4.8414210212010326e+05 3.9140656148292079e-14 1.7974029219974607e+05 3.4680949100074347e+05 6.3535139538729377e+05 -999 2.20700494e-02 5.761219125e-01 -1.12249368e-02
 2 3 234820 4.4857624608047481e+05 4.2582536370005965e+05 3.5189280580998363e-14 2.0027036810743227e+05 4.2687395846609212e+05 4.1262598906366969e+05 -999 3.95309447e-02 5.645344013e-01 -2.28395193e-02
 3 3 234820 5.3050136893136485e+05 3.9022614616095583e+05 3.2143837755932898e-14 2.4134868800614000e+05 5.0547218021625321e+05 2.6747997218529845e+05 -999 5.47295853e-02 5.612186765e-01 -3.26988894e-02
 4 3 234820 6.0868923459870764e+05 3.6208479383999255e+05 2.9753878294106128e-14 2.9062754073422513e+05 5.8601445166941627e+05 1.7039561011368642e+05 -999 6.99788378e-02 5.626571419e-01 -4.15742119e-02
 5 3 234820 6.8542132784506679e+05 3.6744746329907322e+05 2.7895873334185721e-14 3.4325090539714153e+05 6.7168339453762339e+05 9.2238901373675355e+04 -999 8.11268213e-02 5.654382879e-01 -4.81543869e-02
 6 3 234820 6.3066975731055508e+05 4.1520907711202436e+05 2.6508699229205710e-14 3.6695381545047689e+05 6.2037568823657313e+05 6.5902900347079092e+04 -999 8.81570719e-02 5.621465735e-01 -5.31514125e-02
 7 3 234820 6.4588443561944808e+05 4.3797866563513252e+05 2.5253208456192222e-14 3.8365959832910751e+05 6.3101853158266854e+05 5.2936412059554714e+04 -999 9.41053032e-02 5.550852328e-01 -5.76897966e-02
 8 3 234820 7.0458869202376145e+05 4.3956083761937666e+05 2.4381014868344170e-14 3.9155822103803308e+05 7.0774061037733371e+05 4.5205839790277088e+04 -999 9.92577523e-02 5.442668595e-01 -6.10114473e-02
 9 3 234820 8.2144648701197328e+05 4.5919723915949120e+05 2.3781259629644816e-14 4.2424016700153588e+05 8.4308048967955075e+05 4.0142860383697371e+04 -999 1.04752734e-01 5.297130773e-01 -6.38984585e-02
 10 3 234820 8.0943218441088719e+05 4.2052209515836614e+05 2.3397264917395560e-14 4.0962451783786260e+05 8.3955766390709789e+05 3.6181948485400266e+04 -999 1.08028514e-01 5.203150779e-01 -6.54820949e-02
 11 3 234820 7.1153876385048358e+05 3.8455956419454719e+05 2.2884565700300525e-14 3.9318690419484198e+05 7.2218564209408883e+05 3.2752286252363527e+04 -999 1.11999360e-01 5.079903417e-01 -6.75141832e-02
 12 3 234820 6.7059665038300259e+05 4.0040934432584821e+05 2.2432222374486288e-14 3.7915102725305432e+05 6.7704644425114745e+05 2.9933024007357064e+04 -999 1.14753689e-01 4.984263982e-01 -6.90101235e-02
 13 3 234820 7.0599776647424779e+05 3.7557570632763469e+05 2.2025010698207526e-14 3.8149552610772615e+05 7.1589890954357386e+05 2.7587492580909853e+04 -999 1.17169882e-01 4.886994446e-01 -7.04441464e-02
 14 3 234820 6.9419899932442035e+05 3.6153890583751828e+05 2.1727004710853226e-14 3.6226940844885743e+05 7.1505970133589720e+05 2.5603650075452439e+04 -999 1.18439190e-01 4.824494767e-01 -7.13006277e-02
 15 3 234820 7.3734195266670221e+05 3.9468372301388730e+05 2.1465838003661994e-14 3.7783748427220958e+05 7.6477268756955594e+05 2.3962352841458403e+04 -999 1.19699480e-01 4.756138348e-01 -7.22162656e-02
 16 3 234820 6.6043823967276351e+05 3.8514955789462849e+05 2.1188473362764840e-14 3.5034235938924731e+05 6.8906891434859473e+05 2.2045585655154871e+04 -999 1.20567040e-01 4.702289412e-01 -7.28702247e-02
 17 3 234820 5.7002182725364366e+05 3.1500992780400818e+05 2.0867800676568072e-14 3.1834321354438749e+05 5.8121971826262213e+05 2.0398813615320101e+04 -999 1.21576454e-01 4.636036154e-01 -7.36177150e-02
 18 3 234820 5.6811705284724466e+05 3.2608721292992122e+05 2.0594630526417292e-14 3.1008420007225522e+05 5.7885486264449521e+05 1.9015628864205828e+04 -999 1.22496898e-01 4.571263937e-01 -7.42566313e-02
 19 3 234820 5.8379760131283558e+05 2.9521660031114914e+05 2.0392394521546499e-14 3.0626777331511636e+05 5.9501450490361033e+05 1.7817444945728825e+04 -999 1.23266435e-01 4.512496500e-01 -7.47462968e-02
 20 3 234820 6.0362146528835106e+05 3.0128687221406557e+05 2.0268671577958634e-14 2.9665767811093340e+05 6.3154961221832561e+05 1.6752783887262074e+04 -999 1.23806064e-01 4.467372571e-01 -7.50610983e-02
 21 3 234820 5.0767980975695333e+05 2.6970970614446164e+05 2.0058961904007981e-14 2.7316332836795587e+05 5.2841018088021257e+05 1.5507854793534361e+04 -999 1.24345912e-01 4.413629924e-01 -7.53599495e-02
 22 3 234820 4.5772802189107903e+05 2.6527637073888065e+05 1.9856860061616257e-14 2.5715443321042182e+05 4.6676089786052704e+05 1.4438246002436752e+04 -999 1.24838855e-01 4.359757270e-01 -7.56243792e-02
 23 3 234820 4.6513545504468505e+05 2.5048172672593972e+05 1.9669584204593236e-14 2.4883023864656099e+05 4.7103074924546713e+05 1.3507028534622765e+04 -999 1.25327424e-01 4.300441120e-01 -7.58854669e-02
 24 3 234820 4.6248364721204637e+05 2.4276857789713156e+05 1.9542280491978705e-14 2.3894828530905701e+05 4.7807170479900221e+05 1.2688700338429317e+04 -999 1.25630626e-01 4.257894123e-01 -7.60534112e-02
 25 3 234820 5.4466887825831841e+05 3.0539402596394834e+05 1.9417859001665142e-14 2.5445717319491305e+05 5.8011409435812244e+05 1.1964910300633979e+04 -999 1.25941746e-01 4.209412242e-01 -7.62354954e-02
 26 3 234820 4.4261429618100368e+05 2.6987422219702188e+05 1.9202126322372400e-14 2.2482236734413452e+05 4.7469981061350933e+05 1.1127844206865759e+04 -999 1.26143506e-01 4.168767576e-01 -7.63631988e-02
 27 3 234820 3.6828425406507531e+05 2.1837040608597663e+05 1.8977437436775133e-14 2.0204843731433139e+05 3.8228819176428166e+05 1.0391194253270100e+04 -999 1.26348676e-01 4.124954544e-01 -7.64983388e-02
 28 3 234820 3.5427993270361761e+05 2.0412329121963965e+05 1.8770567833240652e-14 1.9002631393087222e+05 3.5863654619106452e+05 9.7342259700053601e+03 -999 1.26555122e-01 4.078400353e-01 -7.66389837e-02
 29 3 234820 3.6955386390068132e+05 2.0223949702130901e+05 1.8637878112563241e-14 1.8456120249791373e+05 3.8501779221408651e+05 9.1595895705269886e+03 -999 1.26709286e-01 4.042115486e-01 -7.67461441e-02
 30 3 234820 4.3140906771820196e+05 2.4850466036381575e+05 1.8541050916030189e-14 1.9367348019553340e+05 4.6146705710951419e+05 8.6466972386325233e+03 -999 1.26869799e-01 4.003705352e-01 -7.68572627e-02
 31 3 234820 3.5410951269225555e+05 2.2266906611812898e+05 1.8343149418513179e-14 1.7243770595106485e+05 3.8427802476102480e+05 7.9856476227563307e+03 -999 1.26978162e-01 3.972503047e-01 -7.69313007e-02
 32 3 234820 2.8267591004742926e+05 1.7986027949684864e+05 1.8100094337584134e-14 1.5140222997571938e+05 3.0086643007722497e+05 7.3980520530070735e+03 -999 1.27105015e-01 3.936001448e-01 -7.70166534e-02
 33 3 234820 2.5282255965235803e+05 1.5776124996680990e+05 1.7851288010877151e-14 1.3673125859027906e+05 2.5753282099385912e+05 6.8780719239114660e+03 -999 1.27244341e-01 3.895747829e-01 -7.71087336e-02
 34 3 234820 2.6992829079819226e+05 1.5463443667000328e+05 1.7655135553364603e-14 1.3186006415017069e+05 2.7831114905915526e+05 6.4288036301994916e+03 -999 1.27370160e-01 3.859072545e-01 -7.71908471e-02
 35 3 234820 2.7737281897292973e+05 1.5474190325404570e+05 1.7527746656710211e-14 1.2855374633209767e+05 2.9299791626008321e+05 6.0386703372695929e+03 -999 1.27464065e-01 3.831410243e-01 -7.72517830e-02
 36 3 234820 2.3570779389013848e+05 1.3838982531348037e+05 1.7325958077238538e-14 1.1673797155899326e+05 2.5261023332292147e+05 5.5016517663245249e+03 -999 1.27543021e-01 3.802730709e-01 -7.73053636e-02
 37 3 234820 1.9063286937185947e+05 1.2545128692186838e+05 1.7076099557715929e-14 1.0364351319177714e+05 2.0305231174723964e+05 5.0310519746665223e+03 -999 1.27634627e-01 3.769460547e-01 -7.73681958e-02
 38 3 234820 1.6560611671677532e+05 1.1151064542377963e+05 1.6802329414154833e-14 9.1920996221433670e+04 1.6984521001787082e+05 4.6203235493195798e+03 -999 1.27736461e-01 3.732712742e-01 -7.74382348e-02
 39 3 234820 1.7229306633265858e+05 1.0856048462389923e+05 1.6558439000008697e-14 8.5809247527389918e+04 1.7721783633834752e+05 4.2676214791793464e+03 -999 1.27833224e-01 3.698345793e-01 -7.75041332e-02
 40 3 234820 1.8491653577537203e+05 1.1079868645853054e+05 1.6363185594196293e-14 8.3508231026919064e+04 1.9401399001204962e+05 3.9664432585755844e+03 -999 1.27919830e-01 3.668043836e-01 -7.75623699e-02
 41 3 234820 1.5564458095164329e+05 1.0100020340475942e+05 1.6147082090866099e-14 7.5393338104996990e+04 1.6757514566395743e+05 3.5746977571363759e+03 -999 1.27982928e-01 3.641258361e-01 -7.76078880e-02
 42 3 234820 1.2154310142819681e+05 9.0113122491524788e+04 1.5869628260777785e-14 6.6016186621332236e+04 1.3153164446668781e+05 3.2338411851972660e+03 -999 1.28059519e-01 3.609184621e-01 -7.76637800e-02
 43 3 234820 1.0004215472140806e+05 8.0652216564209390e+04 1.5560860897046907e-14 5.7468062036961310e+04 1.0429213860063764e+05 2.9399274878660590e+03 -999 1.28147803e-01 3.573174797e-01 -7.77280265e-02
 44 3 234820 9.8569237528037498e+04 7.7252504082440384e+04 1.5286660316819501e-14 5.2490340426208495e+04 1.0185695096734504e+05 2.6922475907214080e+03 -999 1.28233284e-01 3.539594972e-01 -7.77891709e-02
 45 3 234820 1.0203810199983431e+05 7.6746972019001405e+04 1.5060289030427015e-14 4.9720028186536671e+04 1.0752813398086173e+05 2.4842536326144796e+03 -999 1.28310928e-01 3.510265086e-01 -7.78434593e-02
 46 3 234820 8.7228798025242111e+04 7.0599704274169853e+04 1.4832888797478339e-14 4.5519240285976834e+04 9.4109083583741143e+04 2.1867411749814592e+03 -999 1.28363174e-01 3.484448767e-01 -7.78877146e-02
 47 3 234820 6.9635155723901960e+04 6.4367875310903022e+04 1.4546404970068142e-14 4.0639528459819689e+04 7.6226163993445167e+04 1.9440840902697746e+03 -999 1.28426443e-01 3.453379738e-01 -7.79422184e-02
 48 3 234820 5.5862588000947202e+04 5.8640867271515781e+04 1.4205509372447746e-14 3.5723313241301272e+04 6.0189570768392994e+04 1.7279596826459035e+03 -999 1.28502656e-01 3.416954481e-01 -7.80073015e-02
 49 3 234820 5.0536677950442237e+04 5.5170051458558279e+04 1.3878415848800469e-14 3.2180874266821054e+04 5.3195228590934625e+04 1.5617330974072700e+03 -999 1.28581833e-01 3.380774047e-01 -7.80730120e-02
 50 3 234820 4.8350247441102365e+04 5.3184874163188972e+04 1.3592171819654505e-14 2.9797053664202962e+04 5.0806274398914000e+04 1.4156029510302417e+03 -999 1.28656666e-01 3.348127305e-01 -7.81333272e-02
 51 3 234820 4.2121918896316231e+04 5.0401319372898732e+04 1.3331359690249042e-14 2.7599871911388160e+04 4.4800761796183571e+04 1.2315758381556209e+03 -999 1.28704311e-01 3.319573392e-01 -7.81745493e-02
 52 3 234820 3.4881508676749145e+04 4.7389165205545716e+04 1.3009850779763894e-14 2.5057320989029868e+04 3.7240896420300247e+04 1.0811108871373849e+03 -999 1.28763865e-01 3.284655457e-01 -7.82224846e-02
 53 3 234820 2.8634516918741105e+04 4.4249640198210436e+04 1.2619120919949797e-14 2.2331520180046846e+04 3.0092002027629820e+04 9.5858079882577806e+02 -999 1.28840444e-01 3.242090328e-01 -7.82761359e-02
 54 3 234820 2.5161410752638858e+04 4.1667930485409415e+04 1.2224669358920902e-14 2.0091294975465997e+04 2.5942170306940559e+04 8.6229019772900040e+02 -999 1.28923408e-01 3.198845403e-01 -7.83242404e-02
 55 3 234820 2.2982579219738182e+04 3.9638386835752033e+04 1.1880364609006254e-14 1.8529524148330584e+04 2.3417607045531971e+04 7.8589769369567921e+02 -999 1.28985498e-01 3.159175586e-01 -7.83682593e-02
 56 3 234820 2.0562791333272849e+04 3.7714736713606522e+04 1.1568374041892196e-14 1.7065907445005836e+04 2.0937516166311801e+04 6.9574212228977080e+02 -999 1.29009930e-01 3.120573603e-01 -7.83680790e-02
 57 3 234820 1.7930519561306475e+04 3.5497049122729273e+04 1.1182480385722783e-14 1.5393189420086257e+04 1.8225807192568678e+04 6.2791431953798224e+02 -999 1.29042976e-01 3.071455211e-01 -7.83571071e-02
 58 3 234820 1.5676962111663021e+04 3.3096924673719863e+04 1.0708089521241343e-14 1.3646159613830721e+04 1.5989904872730320e+04 5.8201450883653263e+02 -999 1.29099865e-01 3.010401708e-01 -7.83287251e-02
 59 3 234820 1.4314796698056949e+04 3.1019048228272401e+04 1.0265422373662303e-14 1.2249460650713152e+04 1.4854583822495557e+04 5.5061374773565512e+02 -999 1.29193709e-01 2.947775129e-01 -7.82862492e-02
 60 3 234820 1.3529825096964261e+04 2.9309402660957574e+04 9.8723354975942320e-15 1.1238895945503094e+04 1.4396432341844054e+04 5.2752394663687983e+02 -999 1.29333992e-01 2.887135835e-01 -7.82392322e-02
 61 3 234820 1.2523892345011214e+04 2.7432754897523897e+04 9.4556306116174655e-15 1.0311382566780399e+04 1.3757773810565024e+04 4.9876867481179085e+02 -999 1.29613967e-01 2.812424669e-01 -7.81740199e-02
 62 3 234820 1.1914877854543334e+04 2.5327817211206366e+04 8.9207915156546584e-15 9.5875357501694671e+03 1.3530252692732605e+04 5.0219486522981759e+02 -999 1.30184057e-01 2.710985834e-01 -7.81372795e-02
 63 3 234820 1.2045566015423467e+04 2.3329915562532020e+04 8.4662085089213576e-15 9.3528609363226988e+03 1.3938148210688747e+04 5.3816939711061536e+02 -999 1.31222896e-01 2.586126266e-01 -7.82146654e-02
 64 3 234820 1.2577918900528402e+04 2.1809159362609324e+04 8.1514436903790326e-15 9.4680652393678156e+03 1.4592470427876078e+04 6.0287810397748149e+02 -999 1.32706981e-01 2.457394156e-01 -7.85046481e-02
 65 3 234820 1.3036566807161655e+04 2.0695363597983978e+04 7.9575706755853801e-15 9.5764705907957705e+03 1.5066267483612135e+04 7.3959823423367686e+02 -999 1.34571637e-01 2.327784697e-01 -7.90780390e-02
 66 3 234820 1.2644469325885728e+04 1.8738168023335420e+04 8.8335323659767180e-15 8.6358937327659260e+03 1.4519894370206694e+04 1.1546461751860641e+03 -999 1.38102584e-01 2.125308810e-01 -8.08113641e-02
 67 3 234820 1.2239866817829741e+04 1.7437748908403126e+04 7.6511517123648348e-15 8.0111615469760063e+03 1.3642943918875664e+04 2.9386743919573410e+03 -999 1.43397257e-01 1.840163559e-01 -8.45415785e-02
 68 3 234820 1.1507839603400696e+04 1.6654769227731027e+04 9.7253193385991552e-15 7.9792415585577965e+03 1.2308709716351201e+04 7.0812804714650201e+03 -999 1.47561076e-01 1.574561848e-01 -8.98631353e-02
 69 3 234820 1.1262719961896355e+04 1.6295930116324273e+04 2.2159610765333341e-14 7.8407932425754834e+03 1.1625342207868674e+04 1.0193040230355289e+04 -999 1.47931119e-01 1.463471915e-01 -9.27178832e-02
 70 3 234820 1.1184109515421529e+04 1.6203956459601501e+04 3.1862918448657213e-14 7.7231041200414893e+03 1.1422290528518559e+04 1.3346902418871179e+04 -999 1.47528367e-01 1.407254128e-01 -9.41788625e-02
 71 3 234820 8.8621017609702085e+03 1.3433662692053320e+04 2.3863858276793272e-14 6.6081630296835601e+03 9.1578982877203198e+03 4.5662109945738426e+04 -999 1.44103730e-01 1.252021244e-01 -9.77719512e-02
 72 3 234820 7.4750241401858393e+03 1.4757021493053082e+04 1.8039511798314019e-14 5.2699453469155515e+03 7.5102362062164993e+03 7.7665911023687804e+04 -999 1.36406453e-01 1.100393010e-01 -1.00398183e-01
 73 3 234820 6.9233625866450857e+03 2.1671321522801351e+04 1.5459134076292829e-14 4.5258400254827975e+03 7.9175471990953693e+03 3.4789176867932059e+04 -999 1.32267676e-01 1.047565215e-01 -1.00648145e-01
 74 3 234820 6.7109670010996379e+03 2.4281461021299947e+04 1.4780772003737207e-14 4.3724041985718559e+03 1.0204953532390778e+04 2.0331304978879587e+04 -999 1.31373412e-01 1.035030677e-01 -1.00675351e-01
 75 3 234820 6.5996041599308055e+03 2.2956094714387498e+04 1.4364865747523858e-14 4.3019454699378866e+03 1.2021118569731791e+04 1.6346621164949920e+04 -999 1.30813849e-01 1.027266115e-01 -1.00679753e-01
 76 3 234820 5.9164083200542036e+03 1.5487625750538225e+04 1.2501399653462198e-14 3.8213293162998280e+03 7.5526116914429222e+03 1.4770340544745442e+04 -999 1.27639060e-01 9.821251357e-02 -1.00736220e-01
 77 3 234820 5.4228693447362793e+03 1.1349590666929058e+04 1.0707350666209657e-14 3.7514633615835382e+03 5.3725759896385707e+03 1.3459308910496768e+04 -999 1.25393117e-01 9.364362847e-02 -1.00873564e-01
 78 3 234820 5.1875220197826911e+03 1.0172645900333575e+04 9.9773691655216911e-15 3.8196389529421403e+03 5.0610727544089368e+03 1.3723714472642423e+04 -999 1.25730561e-01 9.095664743e-02 -1.01343578e-01
 79 3 234820 5.0791406795856765e+03 9.3171772626948568e+03 9.5858210595279187e-15 3.9183006598853826e+03 4.9174119143193593e+03 1.3416441191576809e+04 -999 1.27375678e-01 8.868380547e-02 -1.02158107e-01
 80 3 234820 5.1530679131233892e+03 8.5955299890815495e+03 9.5133619299275124e-15 4.0054322209221154e+03 4.9283668947468650e+03 1.3211460617334977e+04 -999 1.30683834e-01 8.625888251e-02 -1.03571903e-01
 81 3 234820 4.8021614628372827e+03 7.3357738815996599e+03 9.4948598469802230e-15 3.5829836349054867e+03 4.6649611702120701e+03 3.1155199010832781e+04 -999 1.54613605e-01 7.995915275e-02 -1.14412011e-01
 82 3 234820 4.6600311624621545e+03 7.4162448107776972e+03 7.6703182662280914e-15 3.2467606881525785e+03 4.7450376186537942e+03 7.2330470393665397e+04 -999 1.83380426e-01 7.510163972e-02 -1.28878544e-01
 83 3 234820 4.8006522566175545e+03 9.1814142180801391e+03 6.0047387813635098e-15 3.0678914723247563e+03 6.9050782905013421e+03 8.5591662856192255e+04 -999 2.10386440e-01 7.091614317e-02 -1.43647501e-01
 84 3 234820 4.5332783731897207e+03 7.1462953736173895e+03 5.4119283433146869e-15 2.8356853788542894e+03 8.4269417366772541e+03 1.0982366862560659e+05 -999 2.21910033e-01 6.894090837e-02 -1.49965218e-01
 85 3 234820 4.0098801154466655e+03 6.5559900671457090e+03 5.2424646219153112e-15 2.7741988005753824e+03 8.3435084336618420e+03 2.1400259897909997e+05 -999 2.32304987e-01 6.704339778e-02 -1.55401338e-01
 86 3 234820 2.8389793982333035e+03 3.5056432923648326e+03 1.3259520572106325e-14 2.2192065375638158e+03 2.8198229132903261e+03 1.0103577665203453e+05 -999 2.54358659e-01 6.306205156e-02 -1.66396882e-01
 87 3 234820 2.6362730449417477e+03 3.5011785035944126e+03 9.3042879329462424e-14 1.8251220545273086e+03 2.5931238987951424e+03 8.2625000147634957e+04 -999 2.75607160e-01 5.892305146e-02 -1.75468445e-01
 88 3 234820 2.6466373324312212e+03 3.8715038704494059e+03 1.7988792031137837e-13 1.5979387345367172e+03 2.6210567223672738e+03 8.8979948040649833e+04 -999 2.98043447e-01 5.484770904e-02 -1.83023014e-01
 89 3 234820 2.7685629214090372e+03 4.3654388017041738e+03 2.8985517958462500e-13 1.3066466924652218e+03 2.7797546914463501e+03 3.7672209188521992e+04 -999 3.16064888e-01 5.197047906e-02 -1.87532346e-01
 90 3 234820 3.0455308742645525e+03 4.3155094875096538e+03 4.0887100447636288e-13 1.1555085456266515e+03 3.0971377907046613e+03 2.3889910294880992e+04 -999 3.32973787e-01 4.957854310e-02 -1.90811020e-01
 91 3 234820 2.5581592050047107e+03 3.0792533705885749e+03 5.1260071861955958e-13 9.0786983616691532e+02 2.5665362354427889e+03 1.6108986144006121e+04 -999 3.50512210e-01 4.740337894e-02 -1.92646168e-01
 92 3 234820 2.3443528002936278e+03 2.5810796050482290e+03 8.1557672286176273e-13 7.0304838339974538e+02 2.3369589427449955e+03 1.1180171052583888e+04 -999 3.72031243e-01 4.535321555e-02 -1.94553553e-01
 93 3 234820 2.3313753463376411e+03 2.3699457142697624e+03 9.4936672414345301e-13 5.8249815987433510e+02 2.3392169941654884e+03 8.4741779041656846e+03 -999 3.90575868e-01 4.390774830e-02 -1.95717199e-01
 94 3 234820 2.4329965209319535e+03 2.2049706319005359e+03 8.7157614014656316e-13 5.2087169162334362e+02 2.4718459708354640e+03 6.8000073126175821e+03 -999 4.04338918e-01 4.302170391e-02 -1.96284281e-01
 95 3 234820 2.5960315773614229e+03 2.1359215389213327e+03 7.2147409967684875e-13 4.9328434432922035e+02 2.6765983050198042e+03 5.6469246860355024e+03 -999 4.13944079e-01 4.247349796e-02 -1.96512369e-01
 96 3 234820 2.1418288678579706e+03 1.9264068812119917e+03 7.5104403263045489e-13 4.1696666493288848e+02 2.1658059592225286e+03 4.6199051982209912e+03 -999 4.37808627e-01 4.165137026e-02 -1.96405835e-01
 97 3 234820 1.8408961991226613e+03 1.6757696589804673e+03 6.1427863017900215e-13 3.6653186618405181e+02 1.8227967388381746e+03 4.0446983163568316e+03 -999 4.67750248e-01 4.075934292e-02 -1.95697711e-01
 98 3 234820 1.7384982816881682e+03 1.4945300279073235e+03 5.8480233182957373e-13 3.3402690121303584e+02 1.7169745926705416e+03 3.7776143594023574e+03 -999 4.95015012e-01 4.013676248e-02 -1.94324351e-01
 99 3 234820 1.8319895395944386e+03 1.4302898907257600e+03 6.4642142899344089e-13 3.1169536045366272e+02 1.8416691210523634e+03 3.6750851393647872e+03 -999 5.15591475e-01 3.986615316e-02 -1.92764174e-01
 100 3 234820 1.9911006874611351e+03 1.4375208922096444e+03 7.0784714747366755e-13 2.9745030681145732e+02 2.0349928567821237e+03 3.7203567536587980e+03 -999 5.27592326e-01 3.976970332e-02 -1.91639210e-01
 101 3 234820 1.7100288124464821e+03 1.3807769289242310e+03 7.9011771327828756e-13 2.7502262304189242e+02 1.7142507600730523e+03 4.1061547790864824e+03 -999 5.42243484e-01 3.973633503e-02 -1.89659348e-01
 102 3 234820 1.4574657801934161e+03 1.3161086500670867e+03 8.3074282373099384e-13 2.5095395218803461e+02 1.4291880237269718e+03 4.4563481245985267e+03 -999 5.59022263e-01 3.963093155e-02 -1.87358540e-01
 103 3 234820 1.2664048205345675e+03 1.2235433751877092e+03 8.6227449672544469e-13 2.2373456473170313e+02 1.2152465316258169e+03 4.5163974234653224e+03 -999 5.76609659e-01 3.943017106e-02 -1.84925565e-01
 104 3 234820 1.1658191691221373e+03 1.1761419573869023e+03 8.9278223124339743e-13 2.1552314836479042e+02 1.1053452223569518e+03 5.2001620830305865e+03 -999 5.89137671e-01 3.919839882e-02 -1.83108503e-01
 105 3 234820 1.1064016766849027e+03 1.1217770642730659e+03 8.7411947937832889e-13 2.1349967396240532e+02 1.0389355430882069e+03 5.0998631415360951e+03 -999 6.00625373e-01 3.892148680e-02 -1.81389145e-01
 106 3 234820 1.0354041037468608e+03 1.1189261042269741e+03 8.0343991484336956e-13 2.3819515262703482e+02 9.6526193500301258e+02 4.2355623528129372e+03 -999 6.09392886e-01 3.862297271e-02 -1.80183865e-01
 107 3 234820 9.7687402826855043e+02 1.1212970889764838e+03 7.7376727674183728e-13 2.7616882285090725e+02 9.0504225639652918e+02 4.9465761882889983e+03 -999 6.19972679e-01 3.822283821e-02 -1.78765223e-01
 108 3 234820 9.3358283965762212e+02 1.1015536190802891e+03 7.9249369928381689e-13 3.2400382548523487e+02 8.6241103417231773e+02 4.2408185968482103e+03 -999 6.33234029e-01 3.764546428e-02 -1.77018188e-01
 109 3 234820 9.1873059192802953e+02 1.0856384974570901e+03 8.1562104378280753e-13 3.5929924192726594e+02 8.4815906473350401e+02 3.4870101363493768e+03 -999 6.44321402e-01 3.708264666e-02 -1.75548130e-01
 110 3 234820 9.1159515507469132e+02 1.0798003571544530e+03 8.2368168277448402e-13 3.7959978235361956e+02 8.4247601106383001e+02 3.5081976363421113e+03 -999 6.53109230e-01 3.656985350e-02 -1.74370317e-01
 111 3 234820 8.7953018530912414e+02 1.0846670882469746e+03 7.3348047451203856e-13 3.8414904000893330e+02 8.1132314263291778e+02 3.5583892918916686e+03 -999 6.59408381e-01 3.609727546e-02 -1.73706523e-01
 112 3 234820 8.5542154956700210e+02 1.0869091814861652e+03 6.4661291725299734e-13 3.9260478537330710e+02 7.8800971416662344e+02 3.5547568547053161e+03 -999 6.66957890e-01 3.550835419e-02 -1.72907842e-01
 113 3 234820 8.3918337886662687e+02 1.0864053473536051e+03 5.6994429582234436e-13 4.0399051241642456e+02 7.7386251966508769e+02 3.7311027900956215e+03 -999 6.76184662e-01 3.474512620e-02 -1.71941568e-01
 114 3 234820 8.4488501662897227e+02 1.0822521094575545e+03 5.1859182673915235e-13 4.1419102061735884e+02 7.7959942380597693e+02 3.6892453246526525e+03 -999 6.84818269e-01 3.404021099e-02 -1.70917390e-01
 115 3 234820 8.5033571126843469e+02 1.0839332801530602e+03 4.8901014385109086e-13 4.1606333129569225e+02 7.8679087015975904e+02 3.6483011893883818e+03 -999 6.91116129e-01 3.348703400e-02 -1.70115933e-01
 116 3 234820 8.1930567998400329e+02 1.0178231011853662e+03 4.0225026341486562e-13 3.6070978736536830e+02 7.5387037839036032e+02 4.0167753354462029e+03 -999 6.94601448e-01 3.318570600e-02 -1.69630476e-01
 117 3 234820 8.1454441133981447e+02 9.4994482995851683e+02 3.1637883851673841e-13 3.1020002114285882e+02 7.4752917244487287e+02 4.2471229189021369e+03 -999 6.98891726e-01 3.278701156e-02 -1.68939047e-01
 118 3 234820 8.3845276696957296e+02 8.7714059852062167e+02 2.3468432258002585e-13 2.7244489320197829e+02 7.7261665651596422e+02 4.8923270015450498e+03 -999 7.04819425e-01 3.221075711e-02 -1.67893020e-01
 119 3 234820 8.3962996051986931e+02 8.5159731365931543e+02 2.0622523669461706e-13 2.6375880829477438e+02 7.7549714347389965e+02 4.6154739777588884e+03 -999 7.08751301e-01 3.184927158e-02 -1.67335311e-01
 120 3 234820 8.5814793640464825e+02 8.3807668363836626e+02 1.8349546335754260e-13 2.6124392374581765e+02 7.9485242805843586e+02 4.4920614398893686e+03 -999 7.13281565e-01 3.141477304e-02 -1.66709516e-01
 121 3 234820 8.2074571104599670e+02 8.0996860130153868e+02 1.5481646643852965e-13 2.5954222376647988e+02 7.5710106505489352e+02 4.5822537232525847e+03 -999 7.16536862e-01 3.113686531e-02 -1.66472592e-01
 122 3 234820 7.9457072290661745e+02 7.8011018067269390e+02 1.3031305343161526e-13 2.5899097644681524e+02 7.3026235421502588e+02 4.3596770780072211e+03 -999 7.20654926e-01 3.076624098e-02 -1.66131423e-01
 123 3 234820 7.8896179881107798e+02 7.4402407900814148e+02 1.1511015511071137e-13 2.6197425705537751e+02 7.2570058973602602e+02 4.3705739685618464e+03 -999 7.26650269e-01 3.019308141e-02 -1.65577689e-01
 124 3 234820 7.7777380013233221e+02 7.3066762732974883e+02 1.1388093514439088e-13 2.6201503025381317e+02 7.1591725809151683e+02 4.6209150113273008e+03 -999 7.29963960e-01 2.983830819e-02 -1.65200492e-01
 125 3 234820 7.8926942161990087e+02 7.3434211139434842e+02 1.1468357360005176e-13 2.6141209942879181e+02 7.2711706853072712e+02 4.1634682959191987e+03 -999 7.34228862e-01 2.936445936e-02 -1.64690221e-01
 126 3 234820 7.4810161791383314e+02 7.0673139680520580e+02 9.4800957303642933e-14 2.5617759643910705e+02 6.8445879275722280e+02 4.0190479524335205e+03 -999 7.37548166e-01 2.901653936e-02 -1.64374212e-01
 127 3 234820 7.2001753969721665e+02 6.7955533209532234e+02 8.7392387764137954e-14 2.5059050008768259e+02 6.5539932810726089e+02 3.8370117828581747e+03 -999 7.41850101e-01 2.855992579e-02 -1.63954155e-01
 128 3 234820 7.1805872864625337e+02 6.5329556290572225e+02 9.7290752406914459e-14 2.4474698751745345e+02 6.5527463675600870e+02 3.9053454046393717e+03 -999 7.48111845e-01 2.787100837e-02 -1.63289198e-01
 129 3 234820 7.0406502045628713e+02 6.4767635305402860e+02 1.0182492709615253e-13 2.4212546030934277e+02 6.4239630940413895e+02 3.4518235820970472e+03 -999 7.51030674e-01 2.751760764e-02 -1.62885820e-01
 130 3 234820 7.2500502769359241e+02 6.5676667508230969e+02 1.0692939829065880e-13 2.3772749071256729e+02 6.6385012105068279e+02 3.5621740676129175e+03 -999 7.54780248e-01 2.705076268e-02 -1.62329047e-01
 131 3 234820 6.7589848654098739e+02 6.2842477827027631e+02 8.4998387419217129e-14 2.3082230669578763e+02 6.1340955091577143e+02 3.5567620122894364e+03 -999 7.58362897e-01 2.667392395e-02 -1.61939672e-01
 132 3 234820 6.5114193733486059e+02 6.0147122191914002e+02 8.8414711178873292e-14 2.2271431520786172e+02 5.8923371898162929e+02 3.5918820174404605e+03 -999 7.63310972e-01 2.615926483e-02 -1.61409261e-01
 133 3 234820 6.3183526447906092e+02 5.8817028021586259e+02 1.0338946560094999e-13 2.1669899238096588e+02 5.7195275298828972e+02 3.6720424745432065e+03 -999 7.67826471e-01 2.567263371e-02 -1.60859812e-01
 134 3 234820 6.3620069956989175e+02 5.9695616565569048e+02 1.1475870398494307e-13 2.1384889025370833e+02 5.7673928269408611e+02 3.3724664816874620e+03 -999 7.71579278e-01 2.524028850e-02 -1.60308058e-01
 135 3 234820 6.4347279922785071e+02 6.0397606514677989e+02 1.1778846839535527e-13 2.1193972331283524e+02 5.8319894233211926e+02 3.3437086048416409e+03 -999 7.73287059e-01 2.502608087e-02 -1.59989011e-01
 136 3 234820 5.8822132211780547e+02 5.6823433343863962e+02 8.1466558947092500e-14 2.0918799531624160e+02 5.2764240516092161e+02 3.2965127980735624e+03 -999 7.76797412e-01 2.467825931e-02 -1.59551119e-01
 137 3 234820 5.6790603253513825e+02 5.4992088640629902e+02 6.9740787562602791e-14 2.0602722250022597e+02 5.0860003609941117e+02 3.3899644558653013e+03 -999 7.80750551e-01 2.429904054e-02 -1.59087655e-01
 138 3 234820 5.5725264611230580e+02 5.4708049295117235e+02 7.3435431661161171e-14 2.0293823813301771e+02 4.9894258125566563e+02 3.5806579142588657e+03 -999 7.84516393e-01 2.392183263e-02 -1.58593441e-01
 139 3 234820 5.5963514171201837e+02 5.4724835552198897e+02 7.4802539479636415e-14 2.0069442549596778e+02 5.0014904568736091e+02 3.4133596837229002e+03 -999 7.86780149e-01 2.366748695e-02 -1.58207408e-01
 140 3 234820 5.5899866232418924e+02 5.4466399520392724e+02 7.4978453426581022e-14 1.9862104946174020e+02 4.9997590092930920e+02 3.4961216205599508e+03 -999 7.88474280e-01 2.346248540e-02 -1.57873644e-01
 141 3 234820 5.2730652129836392e+02 5.2547671059249319e+02 5.9743191310972345e-14 1.9737869928705186e+02 4.6822677511328601e+02 3.9618616931638730e+03 -999 7.90776979e-01 2.324105051e-02 -1.57564476e-01