TITLE = "005.01 ALPHA 3.40 GRIDLEVEL 2"

VARIABLES = "ITERATION"  "GRID_LEVEL"  "GRID_SIZE"  "CONTINUITY"  "MOMENTUMX"  "MOMENTUMY"  "MOMENTUMZ"  "ENERGY"  "TURB1"  "TURB2"  "CL_TOT"  "CD_TOT"  "CM_TOT"

DATASETAUXDATA ParticipantID   = "005"
DATASETAUXDATA SubmissionDate  = "10-31-2024"
DATASETAUXDATA Name            = "Jeffrey A. Housman"
DATASETAUXDATA Email           = "jeffrey.a.housman@nasa.gov"
DATASETAUXDATA Institution     = "NASA Ames Research Center"
DATASETAUXDATA SolverName      = "LAVA Curvilinear"
DATASETAUXDATA BasicAlgorithm  = "RANS"
DATASETAUXDATA TurbulenceModel = "SA-neg"
DATASETAUXDATA GridId          = "Multiblock"
DATASETAUXDATA Discretization  = "Finite difference"
DATASETAUXDATA Order           = "2"
DATASETAUXDATA DistanceCalc    = "Exact"
DATASETAUXDATA Notes           = " "

ZONE T = "005.01 - Alpha 3.40 - Grid Level 2"
AUXDATA Tstatic         = "271.0"
AUXDATA Deltat          = "-999"
AUXDATA GridFileName    = "ONERA-OAT15A_230mmChord_780mmSpan_upZ_2024_06_25-Structured_23mm_Level-2.x"
AUXDATA Misc            = " "
 0 2 119662 1.7650953661243297e+05 3.6119933478957019e+05 3.0557786637580102e-14 1.5555957443874038e+05 1.7977807695928417e+05 4.8702670652675472e+05 -999 8.57801290e-03 4.529406680e-01 -5.26791898e-03
 1 2 119662 2.4052376545133410e+05 2.9028935304512049e+05 2.7493438734027617e-14 1.2952914028044582e+05 2.3358523330235746e+05 3.1429904346142459e+05 -999 4.97741508e-02 4.473637847e-01 -2.22183385e-02
 2 2 119662 2.8896048580082826e+05 2.5980859007356269e+05 2.5164074514491582e-14 1.4363269555175575e+05 2.7676645975161449e+05 2.0260024127605898e+05 -999 9.49966025e-02 4.532238229e-01 -4.03206109e-02
 3 2 119662 3.3852902723261039e+05 2.3847778059739099e+05 2.3362542225682362e-14 1.6601718344586680e+05 3.2318399827273289e+05 1.2978082572485754e+05 -999 1.33791674e-01 4.633262949e-01 -5.66969078e-02
 4 2 119662 3.8889880099030945e+05 2.2005892283508871e+05 2.1958295687786360e-14 1.9195421560144654e+05 3.7418631260615366e+05 8.1956995927130178e+04 -999 1.66878794e-01 4.759143583e-01 -6.92230168e-02
 5 2 119662 4.3637196399285505e+05 2.2012692587162019e+05 2.0847318786383539e-14 2.2120793635936105e+05 4.2603506374379050e+05 4.2252770170885218e+04 -999 1.93701818e-01 4.890192155e-01 -7.88421867e-02
 6 2 119662 3.9831740772235952e+05 2.5748187456957719e+05 1.9969129431208629e-14 2.3311834152494642e+05 3.9088682529585640e+05 3.4191464685964194e+04 -999 2.12503537e-01 4.951406440e-01 -8.61241692e-02
 7 2 119662 3.9466251380564726e+05 2.7614014859398850e+05 1.9170399129099583e-14 2.3712504960564879e+05 3.8401662534646492e+05 2.8305318196527442e+04 -999 2.27210064e-01 4.966564831e-01 -9.23133670e-02
 8 2 119662 4.2911462891128124e+05 2.7378686351336987e+05 1.8599947691114767e-14 2.3364682444531290e+05 4.3156077817604138e+05 2.4286627238171506e+04 -999 2.38304597e-01 4.923624325e-01 -9.70045531e-02
 9 2 119662 4.4881070651612611e+05 2.5411665385125371e+05 1.8190520442771313e-14 2.3424123263391847e+05 4.5492645173014299e+05 2.1486717066835587e+04 -999 2.48866867e-01 4.846016873e-01 -1.01039620e-01
 10 2 119662 4.6397319417720317e+05 2.5086404686111884e+05 1.7989559708812338e-14 2.2799806386726251e+05 4.8054175481641327e+05 1.9217052009138170e+04 -999 2.56390347e-01 4.786290409e-01 -1.03702046e-01
 11 2 119662 3.8402309534021543e+05 2.1642620536864307e+05 1.7780975550174257e-14 2.1000600725806243e+05 3.9184997131124319e+05 1.7208771868116910e+04 -999 2.65311888e-01 4.712486111e-01 -1.06902685e-01
 12 2 119662 3.6278326500045852e+05 2.1842301329492731e+05 1.7634945079381498e-14 2.0203632029055260e+05 3.6507508689165796e+05 1.5635629319764686e+04 -999 2.72407833e-01 4.653481010e-01 -1.09406556e-01
 13 2 119662 3.4426455208379641e+05 1.9269405099704751e+05 1.7594403527386272e-14 1.9211965054653058e+05 3.4326906272865803e+05 1.4316413794893839e+04 -999 2.78001923e-01 4.602296351e-01 -1.11428832e-01
 14 2 119662 3.7622979846792866e+05 2.0121653403322041e+05 1.7601615632359265e-14 1.8978823032842579e+05 3.8731804227074236e+05 1.3168857676263762e+04 -999 2.81863025e-01 4.560363818e-01 -1.12896303e-01
 15 2 119662 3.4139533384535718e+05 1.6991487898671813e+05 1.7567544739102227e-14 1.7910109430543851e+05 3.4765091565692966e+05 1.2212561560737788e+04 -999 2.84589887e-01 4.525006717e-01 -1.14009418e-01
 16 2 119662 3.1828630298295314e+05 1.7713495944937604e+05 1.7458041114612258e-14 1.7171484016364135e+05 3.2463928914169787e+05 1.1171684370726680e+04 -999 2.86960109e-01 4.487952262e-01 -1.15043025e-01
 17 2 119662 2.8316282737048675e+05 1.6943641394857675e+05 1.7332256508236753e-14 1.5780397534318964e+05 2.8859413264905033e+05 1.0278979343549398e+04 -999 2.89340633e-01 4.446831191e-01 -1.16101425e-01
 18 2 119662 2.9365607287838636e+05 1.6472346355861914e+05 1.7225039217188929e-14 1.5421688123665826e+05 2.9872812283568777e+05 9.5041001908946782e+03 -999 2.92077434e-01 4.395076767e-01 -1.17300809e-01
 19 2 119662 2.6619210459983815e+05 1.4630183214706898e+05 1.7111824577297011e-14 1.4306420234280775e+05 2.7100241837107856e+05 8.8496427601634878e+03 -999 2.93688118e-01 4.360524349e-01 -1.17963831e-01
 20 2 119662 3.1042780672594055e+05 1.7152069372102272e+05 1.6993707540879855e-14 1.4853249271434546e+05 3.2555336190151941e+05 8.2792621897251956e+03 -999 2.95448631e-01 4.318435719e-01 -1.18648950e-01
 21 2 119662 2.5790769580690601e+05 1.5848681685325684e+05 1.6856450901549577e-14 1.3296843514771070e+05 2.7307486215333082e+05 7.6476022156553281e+03 -999 2.96611381e-01 4.282144455e-01 -1.19066573e-01
 22 2 119662 2.1698528303705240e+05 1.2993952284789068e+05 1.6692215088728545e-14 1.1970167890009025e+05 2.2203321252005783e+05 7.0770704027980819e+03 -999 2.97855455e-01 4.237866257e-01 -1.19499711e-01
 23 2 119662 1.9963207747153632e+05 1.2467294971502942e+05 1.6538831318033872e-14 1.1150462777780493e+05 2.0141289347994354e+05 6.5767505771854594e+03 -999 2.98849292e-01 4.197306035e-01 -1.19837781e-01
 24 2 119662 2.2670872085332294e+05 1.2725001194259081e+05 1.6418488139534097e-14 1.1071705851007855e+05 2.3587141002879321e+05 6.1414542729723316e+03 -999 2.99745530e-01 4.157092323e-01 -1.20139013e-01
 25 2 119662 2.0372988192287326e+05 1.0619540815833314e+05 1.6341661065490838e-14 1.0312691449778348e+05 2.1022343470442269e+05 5.7662079091756659e+03 -999 3.00329740e-01 4.128555056e-01 -1.20334492e-01
 26 2 119662 1.8250851706834324e+05 1.0722301107066845e+05 1.6194827510949958e-14 9.6378213299297422e+04 1.8938878668327705e+05 5.3184736925337902e+03 -999 3.00865251e-01 4.097068718e-01 -1.20507924e-01
 27 2 119662 1.5642810324935694e+05 1.0096515468291528e+05 1.6006248740679616e-14 8.6842068787656142e+04 1.6168554242125057e+05 4.9247355358041041e+03 -999 3.01461125e-01 4.059940801e-01 -1.20702452e-01
 28 2 119662 1.4683782366247845e+05 9.4476480342067764e+04 1.5806410162662349e-14 7.9923277843023796e+04 1.4950313959933331e+05 4.5804664099015108e+03 -999 3.02040163e-01 4.021521723e-01 -1.20894784e-01
 29 2 119662 1.5678599972834741e+05 9.1177600883163948e+04 1.5614854284137543e-14 7.7357120959445150e+04 1.6069788392091828e+05 4.2758691576697447e+03 -999 3.02552179e-01 3.985400753e-01 -1.21068049e-01
 30 2 119662 1.4901135856303459e+05 8.4998081016794284e+04 1.5480474452583881e-14 7.3159580409848670e+04 1.5552904140299532e+05 4.0139789063577246e+03 -999 3.02878712e-01 3.960944508e-01 -1.21179367e-01
 31 2 119662 1.2772751383497250e+05 7.9263082981332205e+04 1.5289356405487840e-14 6.6928574120467980e+04 1.3400774225857179e+05 3.7122201731066002e+03 -999 3.03197085e-01 3.932211731e-01 -1.21282872e-01
 32 2 119662 1.0669989001513740e+05 7.4956938088535433e+04 1.5047491982300179e-14 6.0122729133200381e+04 1.1060338297381584e+05 3.4370780955858677e+03 -999 3.03563244e-01 3.898063387e-01 -1.21401510e-01
 33 2 119662 9.8415943566720089e+04 7.0678600955412694e+04 1.4803651342527933e-14 5.4934016891375708e+04 9.9971031675765582e+04 3.1944833400462762e+03 -999 3.03914371e-01 3.863974090e-01 -1.21515189e-01
 34 2 119662 1.0708939323245558e+05 7.0456116018669156e+04 1.4583619844947730e-14 5.2940024493051860e+04 1.1069958123401098e+05 2.9826445184005156e+03 -999 3.04219581e-01 3.833072963e-01 -1.21613861e-01
 35 2 119662 1.0362378384158482e+05 6.4680898408844354e+04 1.4416643932403113e-14 5.0738420397725939e+04 1.0672673608561486e+05 2.8021993907155947e+03 -999 3.04442883e-01 3.809556524e-01 -1.21685585e-01
 36 2 119662 8.8797755059084244e+04 6.3399816084849568e+04 1.4216082887914506e-14 4.6347185852052753e+04 9.3432486105903328e+04 2.5915379782237337e+03 -999 3.04637292e-01 3.784634558e-01 -1.21742851e-01
 37 2 119662 7.1953071500892955e+04 5.7997043591863992e+04 1.3984048585078967e-14 4.1165628587800427e+04 7.5559807865198978e+04 2.4023839400069232e+03 -999 3.04861160e-01 3.755908089e-01 -1.21808780e-01
 38 2 119662 6.3003417374272285e+04 5.3017456266023692e+04 1.3709289776555957e-14 3.6797833428527541e+04 6.3937763325040178e+04 2.2301533229043202e+03 -999 3.05107710e-01 3.724315929e-01 -1.21881538e-01
 39 2 119662 6.5892636575705808e+04 5.1465391275048059e+04 1.3439236269672144e-14 3.4647310589022090e+04 6.7539786092944982e+04 2.0765663588670764e+03 -999 3.05340167e-01 3.694523170e-01 -1.21950508e-01
 40 2 119662 6.5551099614099003e+04 4.9941506400307429e+04 1.3248960341601780e-14 3.3240243681615997e+04 6.8126950343261953e+04 1.9454125050245184e+03 -999 3.05510194e-01 3.672561903e-01 -1.22001368e-01
 41 2 119662 5.5866544184941122e+04 4.7290828149689798e+04 1.3039669579988319e-14 3.0548406829352170e+04 5.9090411238184177e+04 1.7810614712891731e+03 -999 3.05658478e-01 3.649505965e-01 -1.22042372e-01
 42 2 119662 4.4538644774014509e+04 4.4519145045812504e+04 1.2777641475409127e-14 2.7449592021127635e+04 4.6961451948641174e+04 1.6347367470684685e+03 -999 3.05840266e-01 3.621618396e-01 -1.22093344e-01
 43 2 119662 3.8069785667341181e+04 4.1625102549254429e+04 1.2486012582195803e-14 2.4713157901692797e+04 3.8754225507727533e+04 1.5075436658027099e+03 -999 3.06042348e-01 3.590988699e-01 -1.22150801e-01
 44 2 119662 3.8089434507350161e+04 4.0208761705233424e+04 1.2218598659341264e-14 2.3173202863463477e+04 3.8870788821508351e+04 1.3993686356572371e+03 -999 3.06224269e-01 3.563575911e-01 -1.22203401e-01
 45 2 119662 3.9476174403438716e+04 4.0102197771207553e+04 1.1994104676959906e-14 2.2309409930487753e+04 4.1207430008567528e+04 1.2991306826156419e+03 -999 3.06377656e-01 3.540383961e-01 -1.22248778e-01
 46 2 119662 3.3694009768188196e+04 3.7674577649463565e+04 1.1776046704016422e-14 2.0857260096121372e+04 3.5571967664353804e+04 1.1757974460881403e+03 -999 3.06503808e-01 3.517486063e-01 -1.22283413e-01
 47 2 119662 2.7424659835613918e+04 3.5538578334881160e+04 1.1505938869423805e-14 1.9259197340990944e+04 2.8726282958313106e+04 1.0679801469770266e+03 -999 3.06657263e-01 3.490010746e-01 -1.22326282e-01
 48 2 119662 2.3249251227641234e+04 3.3665213722075663e+04 1.1208988583987718e-14 1.7734911689614713e+04 2.3517080136507760e+04 9.7521862557406257e+02 -999 3.06835639e-01 3.458384473e-01 -1.22377134e-01
 49 2 119662 2.2183251277012532e+04 3.2343746013527274e+04 1.0925515235664233e-14 1.6661750542600013e+04 2.2172853345316318e+04 8.9781718049786355e+02 -999 3.07005374e-01 3.428297829e-01 -1.22426976e-01
 50 2 119662 2.1926512093197452e+04 3.1491130707695371e+04 1.0666875303882025e-14 1.5908176289947540e+04 2.2121499669180546e+04 8.3166739501028985e+02 -999 3.07152846e-01 3.401809636e-01 -1.22472148e-01
 51 2 119662 1.9568671424675762e+04 3.0178179365359811e+04 1.0422520749076615e-14 1.5057099161037531e+04 1.9777163668842357e+04 7.4378722978817530e+02 -999 3.07265869e-01 3.375492646e-01 -1.22501450e-01
 52 2 119662 1.7066060819002530e+04 2.8789795774698578e+04 1.0138720521168186e-14 1.4079378668354777e+04 1.7068104369686171e+04 6.7159930169608663e+02 -999 3.07398900e-01 3.343767004e-01 -1.22534750e-01
 53 2 119662 1.5221393619351120e+04 2.7372903970816024e+04 9.7994137712264733e-15 1.3040224322299277e+04 1.4954749756847023e+04 6.1225095414202781e+02 -999 3.07548045e-01 3.306608378e-01 -1.22569974e-01
 54 2 119662 1.4292331155135691e+04 2.6182731332926862e+04 9.4571711688258985e-15 1.2144571598164306e+04 1.4011455871597536e+04 5.6328583627866317e+02 -999 3.07683991e-01 3.270091670e-01 -1.22599480e-01
 55 2 119662 1.3732615302268207e+04 2.5231020415187766e+04 9.1802788586788051e-15 1.1415523722739910e+04 1.3600227701350566e+04 5.2231981107357410e+02 -999 3.07795421e-01 3.236884593e-01 -1.22621464e-01
 56 2 119662 1.2642768240854384e+04 2.4147776613105056e+04 8.8824996398435881e-15 1.0660419032382786e+04 1.2635675615967375e+04 4.7725629296653784e+02 -999 3.07856607e-01 3.201045707e-01 -1.22605469e-01
 57 2 119662 1.1539965521076547e+04 2.2925146559083641e+04 8.5382549151257335e-15 9.7961320557458439e+03 1.1683928107566868e+04 4.4384779178886777e+02 -999 3.07916999e-01 3.155981108e-01 -1.22569302e-01
 58 2 119662 1.0723761242239490e+04 2.1678103398861258e+04 8.1831020938957040e-15 8.9398777768713535e+03 1.1091252079171571e+04 4.2062291299959890e+02 -999 3.07964279e-01 3.103585207e-01 -1.22504204e-01
 59 2 119662 1.0280434777818662e+04 2.0627395219737755e+04 7.8418460002276654e-15 8.2748282208007386e+03 1.0914436867740824e+04 4.0370278175953916e+02 -999 3.07987634e-01 3.052415296e-01 -1.22417037e-01
 60 2 119662 1.0074157652218535e+04 1.9770141975029779e+04 7.5456243811095839e-15 7.8061498809497925e+03 1.0960196127623896e+04 3.8962382230153969e+02 -999 3.07993601e-01 3.004085077e-01 -1.22317281e-01
 61 2 119662 9.6653583746449331e+03 1.8801785400733963e+04 7.2514855690206322e-15 7.3475139828674874e+03 1.0819517388153872e+04 3.7546567180387080e+02 -999 3.07949489e-01 2.945874523e-01 -1.22131534e-01
 62 2 119662 9.4598498956058611e+03 1.7741698853834503e+04 6.9483579263827078e-15 7.0232007352754890e+03 1.0855192818339827e+04 3.7384957710684017e+02 -999 3.07914630e-01 2.869803106e-01 -1.21865407e-01
 63 2 119662 9.5578101713302531e+03 1.6766920280653860e+04 6.6679803363602951e-15 6.9684396677877912e+03 1.1107651116047420e+04 3.8041065245211666e+02 -999 3.07931849e-01 2.782251564e-01 -1.21545446e-01
 64 2 119662 9.8090033076415966e+03 1.6016183214050514e+04 6.4690943433102706e-15 7.1086010486761234e+03 1.1426550184259400e+04 3.8752963666906220e+02 -999 3.08042750e-01 2.697119889e-01 -1.21252223e-01
 65 2 119662 1.0055022101085297e+04 1.5411857581203894e+04 6.3220494621408986e-15 7.3168846810342002e+03 1.1688270714225864e+04 3.9472143446045959e+02 -999 3.08206892e-01 2.615155873e-01 -1.21040245e-01
 66 2 119662 1.0098854872110436e+04 1.4561466068658816e+04 6.1736371213368719e-15 7.1733398291723915e+03 1.1702060037615362e+04 4.0808156841238537e+02 -999 3.08735730e-01 2.504799736e-01 -1.20902054e-01
 67 2 119662 1.0108395089866237e+04 1.3711638042223007e+04 6.0909248371524834e-15 7.0140968767395589e+03 1.1586073723652449e+04 4.5349634819142113e+02 -999 3.09916056e-01 2.355249416e-01 -1.20989296e-01
 68 2 119662 9.9821104711370153e+03 1.3218064416905747e+04 5.9924574457760443e-15 6.8335186247111005e+03 1.1280850846899639e+04 5.3282106831499902e+02 -999 3.11730059e-01 2.203393358e-01 -1.21558147e-01
 69 2 119662 9.7394867319670739e+03 1.3030100553881470e+04 5.8632810069261032e-15 6.6973479485466160e+03 1.0851484228194751e+04 7.1579080328196267e+02 -999 3.13879515e-01 2.063118243e-01 -1.22658884e-01
 70 2 119662 9.4183144050400388e+03 1.3061674642329694e+04 5.6368337051892342e-15 6.6772760766457759e+03 1.0317765239851020e+04 1.1450561965050351e+03 -999 3.16098774e-01 1.930643591e-01 -1.24286583e-01
 71 2 119662 8.5970719523880161e+03 1.1961778104875357e+04 5.2969803630176267e-15 6.6657840920693698e+03 9.1694681484007579e+03 2.0470912783962485e+03 -999 3.18824336e-01 1.733707823e-01 -1.27719625e-01
 72 2 119662 7.7038159594282924e+03 1.1295164324391057e+04 4.8613368647572833e-15 6.6792238582482732e+03 7.9897799394640879e+03 3.5040111885231327e+03 -999 3.19092318e-01 1.553699969e-01 -1.31562397e-01
 73 2 119662 7.0665976836972295e+03 1.1063896533990650e+04 4.4273237788334298e-15 6.7475042608172998e+03 7.1339809994751149e+03 6.0009778821977870e+03 -999 3.15470028e-01 1.408508188e-01 -1.34423079e-01
 74 2 119662 6.7684027936828315e+03 1.1030791580289371e+04 4.0520241929614366e-15 6.3688833753131958e+03 6.6765318083201710e+03 8.9014359841746009e+03 -999 3.10847664e-01 1.336039056e-01 -1.35059024e-01
 75 2 119662 6.6172338470235736e+03 1.1102375802021803e+04 3.8382159078734434e-15 5.9417448668324796e+03 6.4520221493681020e+03 9.9560433259494839e+03 -999 3.07815463e-01 1.301363581e-01 -1.34975987e-01
 76 2 119662 5.6654520538065099e+03 1.0354492743230780e+04 3.6583115660478429e-15 5.1296136238271374e+03 5.6253835819670030e+03 1.0262015689018779e+04 -999 2.99998857e-01 1.231214505e-01 -1.33921436e-01
 77 2 119662 4.9196122049578144e+03 1.0729313038935370e+04 3.5613383796365535e-15 4.3238016415412694e+03 4.8958801240102757e+03 9.3875962843350080e+03 -999 2.88576438e-01 1.143707833e-01 -1.31190376e-01
 78 2 119662 4.5186590672117418e+03 1.0481964224079891e+04 3.3712477043658668e-15 3.7389650862366375e+03 4.5076923567191725e+03 7.0023982973274524e+03 -999 2.82470996e-01 1.095367288e-01 -1.28680508e-01
 79 2 119662 4.2937360675237496e+03 9.8985815344305720e+03 3.2491737147818334e-15 3.4829170249217677e+03 4.2870695635645370e+03 5.3698707933553524e+03 -999 2.79991431e-01 1.068242948e-01 -1.27151569e-01
 80 2 119662 4.2245407967240681e+03 9.2640775372415046e+03 3.2256609580574887e-15 3.4061257000563787e+03 4.1835205124398890e+03 4.6071123110405670e+03 -999 2.78483682e-01 1.041592685e-01 -1.25721345e-01
 81 2 119662 3.7427815483951167e+03 8.0288126407807731e+03 3.2756910156370707e-15 3.3778147147032009e+03 3.6954103775575009e+03 4.7059346840951166e+03 -999 2.79280903e-01 1.004059886e-01 -1.24195463e-01
 82 2 119662 3.5499133934043916e+03 6.8274739543805554e+03 3.5027062767154312e-15 3.5694930550126242e+03 3.4493255425482507e+03 5.0052978447795222e+03 -999 2.84678940e-01 9.566067809e-02 -1.23274064e-01
 83 2 119662 3.6563321260261223e+03 6.2654799705041987e+03 3.5957241069337356e-15 3.5716486923911980e+03 3.4951537837930905e+03 6.0896777629998987e+03 -999 2.94431377e-01 9.202605710e-02 -1.24256330e-01
 84 2 119662 3.9848784773793818e+03 6.3615449794934211e+03 3.5959749727426791e-15 3.5423342066412438e+03 3.8073816202367830e+03 8.2680419591021000e+03 -999 3.05645353e-01 8.912014080e-02 -1.26418357e-01
 85 2 119662 4.1108337923036470e+03 6.6630772062204087e+03 3.4629460445806750e-15 3.5008362492388173e+03 3.9248883363010527e+03 1.1886745181999187e+04 -999 3.13153465e-01 8.751725909e-02 -1.28270262e-01
 86 2 119662 3.6208338269357737e+03 5.6691171794217471e+03 3.5953903172743785e-15 3.2257622478603143e+03 3.6023587262539795e+03 2.2862983160697760e+04 -999 3.32561340e-01 8.429651966e-02 -1.33903605e-01
 87 2 119662 3.6108155373339541e+03 6.0159350746208938e+03 3.6896254230275992e-15 3.0534969135638503e+03 3.7202790608642640e+03 4.4827242708518970e+04 -999 3.54889548e-01 8.115975304e-02 -1.41545482e-01
 88 2 119662 3.5819918118904575e+03 8.1935678487975165e+03 3.5891408209750112e-15 2.8718067797098947e+03 4.6306324618540802e+03 7.8580303575481725e+04 -999 3.71832867e-01 7.905980426e-02 -1.48133436e-01
 89 2 119662 3.3037451758566604e+03 8.1628679343597696e+03 3.3501211395182197e-15 2.7640332588071574e+03 5.2906537316447184e+03 1.5985075124572686e+05 -999 3.78437816e-01 7.830624635e-02 -1.50819835e-01
 90 2 119662 3.1097118686631220e+03 7.6535834999842245e+03 3.2733658971011761e-15 2.6869773730916309e+03 5.3893479700707485e+03 1.5242495044644224e+05 -999 3.82594862e-01 7.784873033e-02 -1.52512201e-01
 91 2 119662 2.6256903980341708e+03 3.4368647072086615e+03 3.5020878071721511e-15 2.5198127440375424e+03 2.5264681796278715e+03 1.7064957715213648e+05 -999 3.99837819e-01 7.593033788e-02 -1.59543076e-01
 92 2 119662 2.4232376138094378e+03 2.7554752645539879e+03 3.6566309909432136e-15 2.4112021905400698e+03 2.3419942951148114e+03 6.3666883391840718e+04 -999 4.16852129e-01 7.419986919e-02 -1.66404284e-01
 93 2 119662 2.3065277243878772e+03 2.9519772424422426e+03 4.4338156493205943e-15 2.4186214390577693e+03 2.9744003130401452e+03 3.3723183514687677e+04 -999 4.34364455e-01 7.261057089e-02 -1.73155087e-01
 94 2 119662 2.2448460555172082e+03 3.0457968083479618e+03 3.7811576527911497e-15 2.2821119188439020e+03 3.6051618795870986e+03 2.7221815843017954e+04 -999 4.38213816e-01 7.229759189e-02 -1.74534488e-01
 95 2 119662 2.1978790932672846e+03 3.3328591962948644e+03 3.5843263125914943e-15 2.2678776639606285e+03 4.2217879195288888e+03 2.6003340939363341e+04 -999 4.41279922e-01 7.204995211e-02 -1.75611661e-01
 96 2 119662 1.9225282820009124e+03 2.1556719044210854e+03 3.6158747703312443e-15 1.6723897880183686e+03 1.8003709432070646e+03 2.6846821263871196e+04 -999 4.75670940e-01 6.985476662e-02 -1.86598299e-01
 97 2 119662 1.8027806843115425e+03 2.0487484682887298e+03 3.8252585232647147e-15 1.3447587529303833e+03 1.6913706708288387e+03 2.4165235338250288e+04 -999 5.12946332e-01 6.802875384e-02 -1.96296751e-01
 98 2 119662 1.7996031508693329e+03 2.3342439068632657e+03 3.9550306346067116e-15 1.0675167859165470e+03 1.7538306287297110e+03 2.0585243263663684e+04 -999 5.52141305e-01 6.664030122e-02 -2.03842484e-01
 99 2 119662 1.7826674754133110e+03 2.9226093087724357e+03 3.9012871783227410e-15 8.7947117856179818e+02 1.8582282420465197e+03 1.6892515071556769e+04 -999 5.72878785e-01 6.626233870e-02 -2.06529752e-01
 100 2 119662 1.7539887174596302e+03 2.6426262287040154e+03 4.0422224011914679e-15 7.9027623161445763e+02 1.8909205176664761e+03 1.3618630874256909e+04 -999 5.85986616e-01 6.612646697e-02 -2.07844974e-01
 101 2 119662 1.4653043644544850e+03 1.4545718771176680e+03 4.6267452735409968e-15 4.9269450339197925e+02 1.4224270145872094e+03 1.0338010423424599e+04 -999 6.42479176e-01 6.687871694e-02 -2.11723043e-01
 102 2 119662 1.3839831877691395e+03 1.2365144055723736e+03 4.9604672832612192e-15 3.5777353444519269e+02 1.3494673130055660e+03 8.0042219895718063e+03 -999 7.04990234e-01 6.898700720e-02 -2.12915280e-01
 103 2 119662 1.5085068005452488e+03 1.1528257608500669e+03 5.1668951272847586e-15 2.8713705792561524e+02 1.4874181423481773e+03 6.2289115834602853e+03 -999 7.62676114e-01 7.206095822e-02 -2.10768888e-01
 104 2 119662 1.6240674178414467e+03 1.1309904496029840e+03 5.4417006522851896e-15 2.4439134986282608e+02 1.6067043642603196e+03 5.2326882199284400e+03 -999 8.01392729e-01 7.463878671e-02 -2.07079096e-01
 105 2 119662 1.5956649347487562e+03 1.0937070026321360e+03 5.7013226590511641e-15 2.1611366983178573e+02 1.5652552386768562e+03 4.6185662631331870e+03 -999 8.27311721e-01 7.635925798e-02 -2.03763745e-01
 106 2 119662 9.7208494277823775e+02 8.7921412618557656e+02 7.9447486142462830e-14 2.1357980178933477e+02 9.2351688577900245e+02 4.2664780534596548e+03 -999 8.77106329e-01 7.761117249e-02 -1.97391470e-01
 107 2 119662 7.8602093172080629e+02 7.5344333431456312e+02 6.3518564505686065e-14 1.9350804233021387e+02 7.1995034144008878e+02 4.1439223998437310e+03 -999 9.18842092e-01 7.529626736e-02 -1.92572677e-01
 108 2 119662 7.1594430877690763e+02 7.1671122438763211e+02 4.1553984648871491e-14 1.7883805923340853e+02 6.4344366019501422e+02 4.4894795688838840e+03 -999 9.45783449e-01 7.248403466e-02 -1.91028973e-01
 109 2 119662 6.8832022990574785e+02 7.3405289220019802e+02 3.1942808562230318e-14 1.7827253124809590e+02 6.1573197608360579e+02 5.6399517689101967e+03 -999 9.59504126e-01 7.093792716e-02 -1.90355436e-01
 110 2 119662 6.7150442600476231e+02 7.4940013305272100e+02 2.8943187812014012e-14 1.7696486868312175e+02 6.0046145820378706e+02 7.3969721926110824e+03 -999 9.70813943e-01 6.968857688e-02 -1.89787337e-01
 111 2 119662 6.4224178512285232e+02 9.7827748546316820e+02 3.0021309675737651e-14 1.8572035984888959e+02 5.7797546881737389e+02 1.1602230923895380e+04 -999 9.83253897e-01 6.878948138e-02 -1.89417643e-01
 112 2 119662 6.2546907386067346e+02 9.8578869593534819e+02 3.7649099926123808e-14 1.9048428609793675e+02 5.6029882466633762e+02 9.4215101944832350e+03 -999 9.96682520e-01 6.786534521e-02 -1.88952339e-01
 113 2 119662 6.1834552252580568e+02 8.7958588645509644e+02 4.6503041320419957e-14 1.8978449846685675e+02 5.4793593444579972e+02 9.4355455604714971e+03 -999 1.00997991e+00 6.694985321e-02 -1.88336793e-01
 114 2 119662 6.2764460277694207e+02 7.7783194410965473e+02 5.4482449317583472e-14 1.8507243930676705e+02 5.5379690296762703e+02 8.8636968039256808e+03 -999 1.02272060e+00 6.606428319e-02 -1.87579703e-01
 115 2 119662 6.5951032138555399e+02 7.4658143759881636e+02 6.0288486239862936e-14 1.8394112588923207e+02 5.8473426596956415e+02 7.6249751459063837e+03 -999 1.03214859e+00 6.535404925e-02 -1.86808156e-01
 116 2 119662 6.5951032138555399e+02 7.8140849799107480e+02 6.0303361824678119e-14 1.8557114771514267e+02 5.8574611314011679e+02 7.1886059226278658e+03 -999 1.03214859e+00 6.535404925e-02 -1.86808156e-01
 117 2 119662 6.6760990003188476e+02 8.3612341688571257e+02 6.0182035946838375e-14 2.0250028322347873e+02 5.9624731547464023e+02 7.9167551703209529e+03 -999 1.03539746e+00 6.503694263e-02 -1.86519791e-01
 118 2 119662 6.6574568602850104e+02 7.7629970320842540e+02 4.7614837428131574e-14 1.8750165217947497e+02 5.9077095093162620e+02 6.8886163481630929e+03 -999 1.03707177e+00 6.490729604e-02 -1.86502846e-01
 119 2 119662 7.3077725442315113e+02 7.2690464173624855e+02 3.5927085248706045e-14 1.8491645433138063e+02 6.5045262935574272e+02 7.0248414623352573e+03 -999 1.03943615e+00 6.473239346e-02 -1.86504697e-01
 120 2 119662 8.5614996757872018e+02 6.7135005728186593e+02 2.8346384112463190e-14 1.9365682464953238e+02 7.7460887515049831e+02 7.3086416106475363e+03 -999 1.04274206e+00 6.449479359e-02 -1.86524379e-01
 121 2 119662 8.5161630330422133e+02 6.5264760643815328e+02 2.3016656399177542e-14 1.9011582431627940e+02 7.7144424463221571e+02 7.6181958841960331e+03 -999 1.04411118e+00 6.439168222e-02 -1.86538613e-01
 122 2 119662 8.4893992331597519e+02 6.3437011414330641e+02 1.9197365874509333e-14 1.8988109148703697e+02 7.6957253881355075e+02 7.8055323736243363e+03 -999 1.04586816e+00 6.425414169e-02 -1.86533015e-01
 123 2 119662 8.5490765005493154e+02 6.1170400457763344e+02 1.9040815739207042e-14 1.9205879598051132e+02 7.7426269787542878e+02 7.7542620062393198e+03 -999 1.04840514e+00 6.403378647e-02 -1.86475546e-01
 124 2 119662 8.8356621865856278e+02 5.9402059882748438e+02 2.1721616658904456e-14 1.9309729045248602e+02 8.0168287760705357e+02 7.6831254907836692e+03 -999 1.05076367e+00 6.378528996e-02 -1.86305605e-01
 125 2 119662 9.0087867221194347e+02 5.8324453734549786e+02 2.3920576656796541e-14 1.9018038731664714e+02 8.2241250857218995e+02 7.6350513211132502e+03 -999 1.05246885e+00 6.357701160e-02 -1.86107924e-01
 126 2 119662 8.6389383912162418e+02 5.6697938103027730e+02 2.1651807509862046e-14 1.8875697994389910e+02 7.8548977832068852e+02 7.4789868553213055e+03 -999 1.05510978e+00 6.322467415e-02 -1.85688512e-01
 127 2 119662 8.9412356598912902e+02 5.5703681154155379e+02 2.2742901717087208e-14 1.8176541860119727e+02 8.1109515180198366e+02 7.4151709307940064e+03 -999 1.05853699e+00 6.274051601e-02 -1.85010437e-01
 128 2 119662 9.5119565541244572e+02 5.5140229023519294e+02 2.2190691466014048e-14 1.6701643401997626e+02 8.7799214506108103e+02 7.3696213083033472e+03 -999 1.06160575e+00 6.223419767e-02 -1.84143042e-01
 129 2 119662 9.0113995766829657e+02 5.3831483511605313e+02 2.1324473208054573e-14 1.5612680129618508e+02 8.2863019521657611e+02 7.3509272108651130e+03 -999 1.06547239e+00 6.188891907e-02 -1.83661941e-01
 130 2 119662 9.7693632500875833e+02 5.4999435774772110e+02 1.9971865446458547e-14 1.6049018587923507e+02 8.8993374026827280e+02 7.3544029213493777e+03 -999 1.06856878e+00 6.165143863e-02 -1.83322890e-01
 131 2 119662 8.8434967750954479e+02 5.3023704801219230e+02 1.4071866904868324e-14 1.4552311844793977e+02 8.0301288059597653e+02 7.3308688376059717e+03 -999 1.07143187e+00 6.141708113e-02 -1.82913866e-01
 132 2 119662 8.1974830798882374e+02 5.2248075331745440e+02 1.0060142670420388e-14 1.4253088716659167e+02 7.3707227747740546e+02 7.2945627072614307e+03 -999 1.07500396e+00 6.115055275e-02 -1.82397169e-01
 133 2 119662 8.4936360081810574e+02 5.2759728824734771e+02 7.7549171204819640e-15 1.3975323812344834e+02 7.6922541742970304e+02 7.3712084097357410e+03 -999 1.07974222e+00 6.086013295e-02 -1.81761556e-01
 134 2 119662 8.0666176889509768e+02 5.1759156523074557e+02 6.7524912100574590e-15 1.3476950636884919e+02 7.3411446298840565e+02 7.3471412755852207e+03 -999 1.08310079e+00 6.067626419e-02 -1.81258049e-01
 135 2 119662 7.8330243083633127e+02 5.1349929052196194e+02 6.2058767512185175e-15 1.3873114676120750e+02 7.0226299350639852e+02 7.3340946158662036e+03 -999 1.08494312e+00 6.055081128e-02 -1.80881793e-01
 136 2 119662 7.3755747937163085e+02 5.0466182168038409e+02 5.4488900440617601e-14 1.3444520621027297e+02 6.5457091357071999e+02 7.4290786592234072e+03 -999 1.08860237e+00 6.036402820e-02 -1.80274212e-01
 137 2 119662 6.9556801371975519e+02 4.9504273605929313e+02 8.9568248285224099e-14 1.3278758967542416e+02 6.1341223671535249e+02 7.5585627537132568e+03 -999 1.09275179e+00 6.023825610e-02 -1.79844409e-01
 138 2 119662 6.9821622235135226e+02 4.8920088889405497e+02 1.0061246995283318e-13 1.3178098823835927e+02 6.1601463581270502e+02 7.3166846305348490e+03 -999 1.09642217e+00 6.014016594e-02 -1.79523539e-01
 139 2 119662 6.7976936600737429e+02 4.9089038383016003e+02 1.0280272331096566e-13 1.3040917885072764e+02 6.0168110017815320e+02 7.5901392302776740e+03 -999 1.10024488e+00 6.004345677e-02 -1.79245865e-01
 140 2 119662 6.7700172427842904e+02 4.8354010530557116e+02 9.9523559281190402e-14 1.3050626636345436e+02 5.9392390011539032e+02 7.9347753102573815e+03 -999 1.10219273e+00 5.997679008e-02 -1.79082062e-01
 141 2 119662 6.4228540723948220e+02 4.7386930192852645e+02 7.1838876348384604e-14 1.2567022936990796e+02 5.6006482529484640e+02 8.0786949077767395e+03 -999 1.10507816e+00 6.001134028e-02 -1.79217735e-01