TITLE = "005.01 ALPHA 1.36 GRIDLEVEL 5"

VARIABLES = "ITERATION"  "GRID_LEVEL"  "GRID_SIZE"  "CONTINUITY"  "MOMENTUMX"  "MOMENTUMY"  "MOMENTUMZ"  "ENERGY"  "TURB1"  "TURB2"  "CL_TOT"  "CD_TOT"  "CM_TOT"

DATASETAUXDATA ParticipantID   = "005"
DATASETAUXDATA SubmissionDate  = "10-31-2024"
DATASETAUXDATA Name            = "Jeffrey A. Housman"
DATASETAUXDATA Email           = "jeffrey.a.housman@nasa.gov"
DATASETAUXDATA Institution     = "NASA Ames Research Center"
DATASETAUXDATA SolverName      = "LAVA Curvilinear"
DATASETAUXDATA BasicAlgorithm  = "RANS"
DATASETAUXDATA TurbulenceModel = "SA-neg"
DATASETAUXDATA GridId          = "Multiblock"
DATASETAUXDATA Discretization  = "Finite difference"
DATASETAUXDATA Order           = "2"
DATASETAUXDATA DistanceCalc    = "Exact"
DATASETAUXDATA Notes           = " "

ZONE T = "005.01 - Alpha 1.36 - Grid Level 5"
AUXDATA Tstatic         = "271.0"
AUXDATA Deltat          = "-999"
AUXDATA GridFileName    = "ONERA-OAT15A_230mmChord_780mmSpan_upZ_2024_06_25-Structured_23mm_Level-5.x"
AUXDATA Misc            = " "
 0 5 752103 4.6646526083282474e+05 1.5479482706154985e+06 7.6801866300973473e-14 4.2602475679174560e+05 4.8355161100802507e+05 2.7048155703114425e+06 -999 7.29484505e-03 9.090839606e-01 -6.19455995e-04
 1 5 752103 7.0740941181182442e+05 1.1519102920074407e+06 6.5385636619337451e-14 3.3137463932341372e+05 6.8289500001273444e+05 1.7587571093987697e+06 -999 2.30398048e-02 8.294410406e-01 -1.07245963e-02
 2 5 752103 8.8082827238235378e+05 9.7732740156498470e+05 5.6998194591740399e-14 3.6985185536409833e+05 8.4122227924161707e+05 1.1484482533091058e+06 -999 4.04629357e-02 7.813984466e-01 -2.25061866e-02
 3 5 752103 1.0317842509901881e+06 8.7525745813073544e+05 5.0619985470202852e-14 4.5254865888492658e+05 9.8721859087884158e+05 7.5411444685046794e+05 -999 5.66649280e-02 7.499440982e-01 -3.27259729e-02
 4 5 752103 1.1622609919612957e+06 8.0205412909895170e+05 4.5661736104382859e-14 5.4828615480467794e+05 1.1247943155554917e+06 4.8796125123588584e+05 -999 7.21115247e-02 7.282118825e-01 -4.17254492e-02
 5 5 752103 1.2974712156818223e+06 8.0578799256593338e+05 4.1779407193592499e-14 6.4869729293006752e+05 1.2866596933230206e+06 3.1530780963101011e+05 -999 8.28530149e-02 7.110717501e-01 -4.83658221e-02
 6 5 752103 1.1826756516675502e+06 8.3706893124381907e+05 3.8848518124191358e-14 6.8445060225124913e+05 1.1746149959516290e+06 1.6790855774487637e+05 -999 9.00011662e-02 6.894266111e-01 -5.35921529e-02
 7 5 752103 1.2155640371745622e+06 8.4754317071664438e+05 3.6239658534722704e-14 7.1635482374420331e+05 1.2043893198061243e+06 1.1951068390958382e+05 -999 9.63459840e-02 6.661222094e-01 -5.82934586e-02
 8 5 752103 1.2807909665752053e+06 8.3053883580045262e+05 3.4320817767357602e-14 7.3713891120904300e+05 1.2902081557083195e+06 9.8829283410334043e+04 -999 1.01761362e-01 6.431365509e-01 -6.17274596e-02
 9 5 752103 1.5559790665056228e+06 9.1007222091219982e+05 3.2724114392880413e-14 8.1758164279668324e+05 1.6280331929196399e+06 8.7048032854364661e+04 -999 1.07443215e-01 6.175055284e-01 -6.47910330e-02
 10 5 752103 1.4516095188109062e+06 7.5484162115863257e+05 3.1813625261275398e-14 7.8585195008374820e+05 1.4972029870476448e+06 7.8169017003181376e+04 -999 1.10487943e-01 6.022427800e-01 -6.63795252e-02
 11 5 752103 1.3743678447364666e+06 7.7952824527282768e+05 3.0760036318250950e-14 7.7849670044491254e+05 1.4069321944481367e+06 7.0801111535149816e+04 -999 1.13473684e-01 5.853599047e-01 -6.80554164e-02
 12 5 752103 1.2739085385637172e+06 7.6021774028806505e+05 2.9735652129401217e-14 7.5016458038866089e+05 1.2906298653239387e+06 6.5061250504322881e+04 -999 1.15877041e-01 5.695503296e-01 -6.94701486e-02
 13 5 752103 1.4276368358760762e+06 8.0922178700098558e+05 2.8784678476197490e-14 7.8898365820076293e+05 1.4776730884680490e+06 6.0477558483419853e+04 -999 1.18045048e-01 5.529903924e-01 -7.08596477e-02
 14 5 752103 1.3413763385518030e+06 6.9042003562662564e+05 2.8212041458057931e-14 7.5198987012681912e+05 1.3700662712833886e+06 5.6490430796388537e+04 -999 1.19245994e-01 5.427222218e-01 -7.16997285e-02
 15 5 752103 1.5461810637752838e+06 8.3645118317728990e+05 2.7768487530575049e-14 7.8998757035335200e+05 1.6430488798504788e+06 5.3114384842115403e+04 -999 1.20415855e-01 5.323210754e-01 -7.25684838e-02
 16 5 752103 1.2937221077626590e+06 7.2625223970524862e+05 2.7224992650371069e-14 7.1981135338201793e+05 1.3591887191918052e+06 4.9154523975287360e+04 -999 1.21340389e-01 5.233033953e-01 -7.32483311e-02
 17 5 752103 1.1956736863057427e+06 6.7817854192121967e+05 2.6658247863874784e-14 6.9552421485093073e+05 1.2153939753058960e+06 4.5777373682232253e+04 -999 1.22298944e-01 5.132250229e-01 -7.39170543e-02
 18 5 752103 1.1722565370383908e+06 6.3692325847900147e+05 2.6252567207268918e-14 6.7802994751652970e+05 1.1837387898793032e+06 4.2930648945376801e+04 -999 1.23054238e-01 5.044123762e-01 -7.43975693e-02
 19 5 752103 1.3042389515080650e+06 6.8204221147726895e+05 2.5947852984244909e-14 6.8320504304516921e+05 1.3671281486433414e+06 4.0476346812659431e+04 -999 1.23667713e-01 4.964872832e-01 -7.47535720e-02
 20 5 752103 1.2933859758117888e+06 6.2887084804384934e+05 2.5727891978156563e-14 6.8837693849481875e+05 1.3420846785090240e+06 3.8282839847099487e+04 -999 1.24110241e-01 4.901207586e-01 -7.49989100e-02
 21 5 752103 1.1745485902071539e+06 6.5221652743385104e+05 2.5354217331254160e-14 6.4878273897988058e+05 1.2257077193160057e+06 3.5744179616221445e+04 -999 1.24458315e-01 4.839740791e-01 -7.51932551e-02
 22 5 752103 1.0433413412840081e+06 5.7480035756213730e+05 2.4921351111193604e-14 6.0371673339457356e+05 1.0666934003033584e+06 3.3540823168865558e+04 -999 1.24836949e-01 4.766073481e-01 -7.54084849e-02
 23 5 752103 1.0485249290924584e+06 5.9228336496619601e+05 2.4527725830456096e-14 5.9200963052335149e+05 1.0724964376208514e+06 3.1617512358741904e+04 -999 1.25162022e-01 4.695923826e-01 -7.56013223e-02
 24 5 752103 1.1996034610123322e+06 6.3573701601938019e+05 2.4243662613464098e-14 6.1337043443104695e+05 1.2629469957899875e+06 2.9936905723129359e+04 -999 1.25452051e-01 4.627482953e-01 -7.57837078e-02
 25 5 752103 1.1316980410988720e+06 5.3401077658115013e+05 2.4009245827931766e-14 5.8777533697457833e+05 1.1834891593826679e+06 2.8439896984204195e+04 -999 1.25620400e-01 4.584037303e-01 -7.58962650e-02
 26 5 752103 1.0156671483884315e+06 5.3293614664089214e+05 2.3612511417864735e-14 5.5685488557886682e+05 1.0604592583108372e+06 2.6690752823649000e+04 -999 1.25779243e-01 4.534903093e-01 -7.60079916e-02
 27 5 752103 9.0394440947039181e+05 5.0784288081202836e+05 2.3159467052860112e-14 5.1919581012152712e+05 9.2738828663681448e+05 2.5137316250378444e+04 -999 1.25956475e-01 4.478483126e-01 -7.61352919e-02
 28 5 752103 9.1006712949198415e+05 5.0798915877665760e+05 2.2773240853365734e-14 5.0594878843985818e+05 9.3132702372952248e+05 2.3776916586384727e+04 -999 1.26128940e-01 4.422863320e-01 -7.62593814e-02
 29 5 752103 1.0436423841084250e+06 5.5375741187989048e+05 2.2512837191508099e-14 5.2062830353318853e+05 1.1000403407376914e+06 2.2576573923023287e+04 -999 1.26293481e-01 4.369279563e-01 -7.63756905e-02
 30 5 752103 1.0028788496817233e+06 4.6989504291243659e+05 2.2399178100020609e-14 5.0665980192047288e+05 1.0490759755052133e+06 2.1500211094290524e+04 -999 1.26399683e-01 4.334242198e-01 -7.64495063e-02
 31 5 752103 8.8842286584999564e+05 4.7644676741466601e+05 2.2163852013200746e-14 4.7415190975916368e+05 9.3419190838473244e+05 2.0243273122183600e+04 -999 1.26503281e-01 4.294414447e-01 -7.65228209e-02
 32 5 752103 7.7308573900790943e+05 4.3448684043471521e+05 2.1929422627205027e-14 4.3722688115776476e+05 7.9685494949393987e+05 1.9116208944367329e+04 -999 1.26621532e-01 4.248989155e-01 -7.66065804e-02
 33 5 752103 7.6793362688609841e+05 4.2610215292407718e+05 2.1776898650609630e-14 4.2149541234268720e+05 7.8182929236892541e+05 1.8114866218192015e+04 -999 1.26742802e-01 4.202252060e-01 -7.66926857e-02
 34 5 752103 8.4112028634221514e+05 4.4453041808910569e+05 2.1746467222470757e-14 4.2120207511607779e+05 8.8177203202503209e+05 1.7227257761705012e+04 -999 1.26841967e-01 4.163887410e-01 -7.67633240e-02
 35 5 752103 9.6862638138065930e+05 5.5246947862396168e+05 2.1773135844285426e-14 4.4149843981723941e+05 1.0463243452872164e+06 1.6432965570987784e+04 -999 1.26935451e-01 4.127648191e-01 -7.68300301e-02
 36 5 752103 8.0122894429391460e+05 4.6788245886644989e+05 2.1589416319190976e-14 3.9930472106792557e+05 8.6762525682520447e+05 1.5506685817566155e+04 -999 1.27005283e-01 4.096431633e-01 -7.68810880e-02
 37 5 752103 6.5989372843209468e+05 3.8600727219925838e+05 2.1373146988885707e-14 3.6294379490875383e+05 6.9004744106357056e+05 1.4663927220198097e+04 -999 1.27091021e-01 4.058736415e-01 -7.69436706e-02
 38 5 752103 6.3210663414284983e+05 3.6382713521132496e+05 2.1183978525880792e-14 3.4367739925122738e+05 6.4234500066308188e+05 1.3910229555533806e+04 -999 1.27179797e-01 4.020434522e-01 -7.70083101e-02
 39 5 752103 6.9973927677535394e+05 3.7789926541564584e+05 2.1084778678749773e-14 3.4236268732721650e+05 7.2909434234222164e+05 1.3240720019816896e+04 -999 1.27259333e-01 3.986699346e-01 -7.70660185e-02
 40 5 752103 7.7697776220639027e+05 4.1219105997244193e+05 2.1053029272279879e-14 3.5149088211321022e+05 8.2581465847764967e+05 1.2637530063603383e+04 -999 1.27330543e-01 3.956949716e-01 -7.71173949e-02
 41 5 752103 6.5287619380259665e+05 3.6958134798195813e+05 2.0821535689397016e-14 3.2012195356500812e+05 7.0298343010239303e+05 1.1867801687958277e+04 -999 1.27389409e-01 3.929292309e-01 -7.71606701e-02
 42 5 752103 5.3448154528632679e+05 3.1601163701357238e+05 2.0535890784510841e-14 2.8926873456117150e+05 5.6254025633933721e+05 1.1171095996511500e+04 -999 1.27458810e-01 3.897402818e-01 -7.72116728e-02
 43 5 752103 4.9786702537518978e+05 2.8773529339065845e+05 2.0250747171730472e-14 2.6876004816102446e+05 5.0396721298981871e+05 1.0543624574250662e+04 -999 1.27537489e-01 3.862093939e-01 -7.72693610e-02
 44 5 752103 5.4409893121559825e+05 2.9342403987954644e+05 2.0067403706048822e-14 2.6439818889893033e+05 5.6215480529101728e+05 9.9930383923787813e+03 -999 1.27608545e-01 3.830996384e-01 -7.73211588e-02
 45 5 752103 5.9593493811840890e+05 3.2517933691061882e+05 1.9955934941930482e-14 2.6615924684134609e+05 6.3483196844755684e+05 9.5047527726469634e+03 -999 1.27667487e-01 3.805780226e-01 -7.73637099e-02
 46 5 752103 5.0447984714694624e+05 2.7817832070218044e+05 1.9720343073260375e-14 2.4349401072474645e+05 5.4275435386910243e+05 8.8761370279146086e+03 -999 1.27720262e-01 3.780562940e-01 -7.74027771e-02
 47 5 752103 4.1324292356553767e+05 2.4616697852550051e+05 1.9438860132527484e-14 2.2042650527488752e+05 4.3743523306679766e+05 8.3095439539411891e+03 -999 1.27781563e-01 3.751897792e-01 -7.74482255e-02
 48 5 752103 3.7529801923068106e+05 2.2392087821555822e+05 1.9172853569472745e-14 2.0272406447891341e+05 3.8182500037630671e+05 7.8018356661451990e+03 -999 1.27850495e-01 3.720467438e-01 -7.74991696e-02
 49 5 752103 4.0005602852239460e+05 2.2270309270849227e+05 1.9007374985537493e-14 1.9610146368392231e+05 4.1012178044393880e+05 7.3583206792900155e+03 -999 1.27915726e-01 3.691596797e-01 -7.75468828e-02
 50 5 752103 4.3771098311448906e+05 2.3884498396504574e+05 1.8941542985417079e-14 1.9560963138961155e+05 4.6022672898839670e+05 6.9672639022033800e+03 -999 1.27973760e-01 3.666686264e-01 -7.75886217e-02
 51 5 752103 3.7412607239630725e+05 2.0981983256942593e+05 1.8732663876000632e-14 1.7892092693569243e+05 4.0019545322259568e+05 6.4599630713448214e+03 -999 1.28022826e-01 3.643754445e-01 -7.76246053e-02
 52 5 752103 3.0415011328271759e+05 1.8378259481065339e+05 1.8468773736420521e-14 1.6054930264031037e+05 3.2377652488830854e+05 6.0032493918331729e+03 -999 1.28082447e-01 3.616304528e-01 -7.76686651e-02
 53 5 752103 2.6831951892000547e+05 1.6586657351484153e+05 1.8191503937018639e-14 1.4510732566610802e+05 2.7569956413462141e+05 5.6003224360209269e+03 -999 1.28150274e-01 3.585795469e-01 -7.77187278e-02
 54 5 752103 2.7643512579874613e+05 1.6234570757860685e+05 1.7995755935575490e-14 1.3711533701225230e+05 2.8301761927435017e+05 5.2491874887825179e+03 -999 1.28216568e-01 3.556937189e-01 -7.77670105e-02
 55 5 752103 2.9582139514851180e+05 1.7006262858376579e+05 1.7903014723112843e-14 1.3370613904208806e+05 3.0977673060219461e+05 4.9181166174184082e+03 -999 1.28278020e-01 3.531169267e-01 -7.78107814e-02
 56 5 752103 2.5450513578492618e+05 1.5170737637034903e+05 1.7715783539974849e-14 1.2283596012907868e+05 2.7141173431171261e+05 4.5106649192801260e+03 -999 1.28325528e-01 3.508809479e-01 -7.78472465e-02
 57 5 752103 2.0742977210047544e+05 1.3450713054368470e+05 1.7486293819356707e-14 1.1038006365401391e+05 2.2208824392379040e+05 4.1502044535999812e+03 -999 1.28383474e-01 3.481923866e-01 -7.78920840e-02
 58 5 752103 1.7821972162143339e+05 1.2096611573737218e+05 1.7231759990623639e-14 9.8728571460703810e+04 1.8605965419699135e+05 3.8294988001323009e+03 -999 1.28452208e-01 3.450971917e-01 -7.79447903e-02
 59 5 752103 1.7578332116199241e+05 1.1557539559331079e+05 1.7057356642589314e-14 9.1416104647520784e+04 1.8143286589108463e+05 3.5356855236147135e+03 -999 1.28521788e-01 3.421085277e-01 -7.79966820e-02
 60 5 752103 1.7936448034020764e+05 1.1464504178674199e+05 1.6973583408151433e-14 8.6946606081232079e+04 1.8694232862497112e+05 3.3060006727200871e+03 -999 1.28586945e-01 3.394556731e-01 -7.80435888e-02
 61 5 752103 1.5541468042262597e+05 1.0558509136927369e+05 1.6794166085267203e-14 8.0478763430706109e+04 1.6474367750527753e+05 2.9847034655918001e+03 -999 1.28635100e-01 3.371806748e-01 -7.80828615e-02
 62 5 752103 1.2722867361610156e+05 9.6393124877446186e+04 1.6554742777618752e-14 7.2899509137987814e+04 1.3587834387951100e+05 2.7097336516899027e+03 -999 1.28694246e-01 3.344291160e-01 -7.81311784e-02
 63 5 752103 1.0662119142954398e+05 8.8111917128028319e+04 1.6288714473590064e-14 6.5260784901979387e+04 1.1203229300445953e+05 2.4707085011374324e+03 -999 1.28766475e-01 3.311955019e-01 -7.81887123e-02
 64 5 752103 9.9664660404037888e+04 8.2906846173909973e+04 1.6068994812976490e-14 5.8933615912983376e+04 1.0336934320613205e+05 2.2705991312996289e+03 -999 1.28841984e-01 3.280154098e-01 -7.82456970e-02
 65 5 752103 9.6360831674829766e+04 7.9487247757333171e+04 1.5921397689471052e-14 5.4381841384893429e+04 9.9912799174178770e+04 2.1013975516559340e+03 -999 1.28914577e-01 3.251427324e-01 -7.82979235e-02
 66 5 752103 8.4132726429908726e+04 7.4872240516964972e+04 1.5895125513096455e-14 5.0247016778520388e+04 8.8320367513471603e+04 1.8726848994084125e+03 -999 1.28962204e-01 3.227170691e-01 -7.83387162e-02
 67 5 752103 6.9508617650676490e+04 6.9851284735518071e+04 1.6112669613945432e-14 4.5336783851884298e+04 7.3308980943126313e+04 1.6842141577846114e+03 -999 1.29020415e-01 3.197564890e-01 -7.83882697e-02
 68 5 752103 5.7286861809615039e+04 6.4745306134060127e+04 1.6462423541828617e-14 4.0014475321375838e+04 5.9623386605553962e+04 1.5281017583049425e+03 -999 1.29092645e-01 3.161892887e-01 -7.84470291e-02
 69 5 752103 5.0906896693002673e+04 6.0717681866391373e+04 1.6726211502850472e-14 3.5641069914511747e+04 5.2304669982864638e+04 1.4016642165825042e+03 -999 1.29168399e-01 3.126417265e-01 -7.85041318e-02
 70 5 752103 4.6617181317240196e+04 5.7533244585709304e+04 1.6777392918915561e-14 3.2242334034201063e+04 4.7594635451935093e+04 1.2981241846369064e+03 -999 1.29241343e-01 3.093900911e-01 -7.85556370e-02
 71 5 752103 4.0827222511498061e+04 5.4512297171246741e+04 1.6361942279569253e-14 2.9392639866548390e+04 4.1915521372310715e+04 1.1569085462757580e+03 -999 1.29275954e-01 3.064751386e-01 -7.85850285e-02
 72 5 752103 3.4057523829774880e+04 5.1086909125065009e+04 1.5864588962950758e-14 2.6105464012205342e+04 3.4952976271129875e+04 1.0516117257067062e+03 -999 1.29315440e-01 3.028286397e-01 -7.86168292e-02
 73 5 752103 2.8050938921354697e+04 4.7431617235946971e+04 1.5280080334033321e-14 2.2631804830997266e+04 2.8543676460632836e+04 9.8064084748653761e+02 -999 1.29362084e-01 2.983329785e-01 -7.86478775e-02
 74 5 752103 2.4318342628057599e+04 4.4356750770904713e+04 1.4735053608716913e-14 1.9844031308784488e+04 2.4676409623906893e+04 9.3441978060004919e+02 -999 1.29409920e-01 2.937971730e-01 -7.86697398e-02
 75 5 752103 2.1901471299530702e+04 4.1893561434754149e+04 1.4283477252110282e-14 1.7869283364977731e+04 2.2321884557293743e+04 9.0630300600800558e+02 -999 1.29457585e-01 2.894997242e-01 -7.86832091e-02
 76 5 752103 1.9344092435575789e+04 3.9477075370026105e+04 1.3896046201323107e-14 1.6184844545277916e+04 2.0042656732568736e+04 8.7608699170100488e+02 -999 1.29480583e-01 2.848330950e-01 -7.86563182e-02
 77 5 752103 1.6881549364379851e+04 3.6754693039414713e+04 1.3428534936374084e-14 1.4568561765632721e+04 1.7923216188325565e+04 9.3530130823846764e+02 -999 1.29551970e-01 2.786633767e-01 -7.86218186e-02
 78 5 752103 1.5469184375930630e+04 3.4039855318294169e+04 1.2907895062767429e-14 1.3445260951697685e+04 1.6932409520184567e+04 1.1542327823545945e+03 -999 1.29741807e-01 2.708607026e-01 -7.85917128e-02
 79 5 752103 1.5283391050091181e+04 3.1978586988896914e+04 1.2435459966030608e-14 1.2977575833812940e+04 1.7139859805536216e+04 1.5710800878230020e+03 -999 1.30104788e-01 2.628067571e-01 -7.85972151e-02
 80 5 752103 1.5591217182263137e+04 3.0505745673264857e+04 1.2075775144049468e-14 1.2788312219773625e+04 1.7761028727462584e+04 2.2787562545472979e+03 -999 1.30672027e-01 2.547555968e-01 -7.86622160e-02
 81 5 752103 1.5223683232221998e+04 2.8064950913835055e+04 1.1660230806793672e-14 1.1782479455021346e+04 1.7644441358573014e+04 4.7334128528019291e+03 -999 1.32018734e-01 2.434470209e-01 -7.89954618e-02
 82 5 752103 1.5538181280215005e+04 2.5938926522184225e+04 1.1359745879729411e-14 1.1128243900382580e+04 1.8041885870381047e+04 1.8041448797423844e+04 -999 1.34367611e-01 2.269758162e-01 -7.98625968e-02
 83 5 752103 1.6151640292955693e+04 2.5404347127665194e+04 1.1261140523999820e-14 1.0994664387995812e+04 1.8531933652680942e+04 7.8683884787220130e+04 -999 1.37516119e-01 2.074542111e-01 -8.16286720e-02
 84 5 752103 1.6682245038064073e+04 2.7878810425886521e+04 1.1121797485075945e-14 1.1220682614330261e+04 1.9021917980409275e+04 1.8783611669659163e+05 -999 1.40752557e-01 1.872586027e-01 -8.44142752e-02
 85 5 752103 1.6584562126814304e+04 3.7601900681323394e+04 1.0638548152596921e-14 1.1458838725443182e+04 2.2483644328354832e+04 2.4213063107343332e+05 -999 1.41799285e-01 1.787528039e-01 -8.59982314e-02
 86 5 752103 1.4576728291738986e+04 2.0760686616559131e+04 3.3799519540295962e-14 1.0513650253780677e+04 1.5892757039604028e+04 7.6733582514918584e+05 -999 1.44596904e-01 1.490712065e-01 -9.25047526e-02
 87 5 752103 1.2851520609555782e+04 2.5501698938155867e+04 6.8139936549239798e-14 1.0408546555279616e+04 1.3944253915252932e+04 6.4766521885877557e+05 -999 1.43832499e-01 1.261517397e-01 -9.90068488e-02
 88 5 752103 1.2546557122205873e+04 4.2858071055403445e+04 7.4193256819766385e-14 8.8825677030163479e+03 1.3869472169855215e+04 7.0696671185721387e+05 -999 1.43558565e-01 1.235795570e-01 -9.97893725e-02
 89 5 752103 1.2448476190607253e+04 4.3837885375808582e+04 7.6083851440388413e-14 8.6482233618283371e+03 1.3512871597188449e+04 6.1967461255612026e+05 -999 1.43519735e-01 1.228423302e-01 -1.00013317e-01
 90 5 752103 1.2205596346006796e+04 2.4443630664040149e+04 7.1125082373180683e-14 8.4497743129674127e+03 1.2712424549657275e+04 3.9564726799730596e+05 -999 1.43430288e-01 1.205613567e-01 -1.00603297e-01
 91 5 752103 1.2062796686213789e+04 2.0549609279865770e+04 6.1127814484815083e-14 7.3644686036804433e+03 1.2271640884632832e+04 9.5258555965580599e+04 -999 1.43301936e-01 1.183439090e-01 -1.01183340e-01
 92 5 752103 1.2028934565812415e+04 2.0218223763111273e+04 5.3457413946313489e-14 7.0974379396608447e+03 1.2128382741036225e+04 7.0663105797597003e+04 -999 1.43142095e-01 1.162341822e-01 -1.01757449e-01
 93 5 752103 1.2057224483418513e+04 2.0140621773772902e+04 4.7459156426072081e-14 6.9938912198355411e+03 1.2082875352985464e+04 6.6017233390514841e+04 -999 1.42949915e-01 1.142443895e-01 -1.02319961e-01
 94 5 752103 1.2042480353306650e+04 2.6335447881754528e+04 4.2626705235443612e-14 6.9485896875292665e+03 1.2031880111643934e+04 6.3368682715620191e+04 -999 1.42723503e-01 1.123709052e-01 -1.02867732e-01
 95 5 752103 1.2011985326168797e+04 3.2824694420402331e+04 4.1252553274709207e-14 6.9635451646624588e+03 1.2405970718327710e+04 6.1987915034059544e+04 -999 1.42655281e-01 1.119077737e-01 -1.03006137e-01
 96 5 752103 1.1887016628742016e+04 1.9624479739852286e+04 3.7589232384975002e-14 6.7811915841033506e+03 1.1828016223858256e+04 6.1066877812687773e+04 -999 1.42386419e-01 1.101985116e-01 -1.03512895e-01
 97 5 752103 1.1630085340451380e+04 1.9239879879224365e+04 3.4500946895527179e-14 6.6022969869045191e+03 1.1538789870818871e+04 5.9997896128962515e+04 -999 1.42087281e-01 1.085818569e-01 -1.04000284e-01
 98 5 752103 1.1334487018792664e+04 1.8953096180482018e+04 3.1905351282524662e-14 6.5209777396494737e+03 1.1243844861125313e+04 5.8977054650404927e+04 -999 1.41760983e-01 1.070445090e-01 -1.04463668e-01
 99 5 752103 1.1030797609429355e+04 1.8665113301299854e+04 2.9634288007913695e-14 6.4852865852012210e+03 1.0947083900910331e+04 5.8011752448534564e+04 -999 1.41410523e-01 1.055769470e-01 -1.04899383e-01
 100 5 752103 1.0758039782574360e+04 1.8379861010446395e+04 2.7737683554596540e-14 6.4907353894086918e+03 1.0678323121463793e+04 5.7031128961871174e+04 -999 1.41040638e-01 1.041723127e-01 -1.05303891e-01
 101 5 752103 1.0395301949820661e+04 1.7889581839934861e+04 6.3851318729097841e-14 6.5784597726905895e+03 1.0307505532750531e+04 5.5044888530454962e+04 -999 1.40455133e-01 1.021902433e-01 -1.05831004e-01
 102 5 752103 1.0140190063582728e+04 1.7386842281059638e+04 8.8485419639132197e-14 6.5260583911225249e+03 1.0026110098964389e+04 5.2740242373406109e+04 -999 1.39883540e-01 1.003347707e-01 -1.06284946e-01
 103 5 752103 9.9709587844652287e+03 1.6897221650173422e+04 9.5818009673122781e-14 6.3499969427809747e+03 9.8087086382946145e+03 5.0613738748356576e+04 -999 1.39357513e-01 9.861371634e-02 -1.06669357e-01
 104 5 752103 9.8425795495263646e+03 1.6410638142731805e+04 9.8119650135291819e-14 6.0974942939198972e+03 9.6205469083045027e+03 4.8564846798842147e+04 -999 1.38903413e-01 9.702935110e-02 -1.06993508e-01
 105 5 752103 9.7368439435018736e+03 1.5929820503990242e+04 1.0413205887360716e-13 5.8178193024379880e+03 9.4550264211919202e+03 4.6531755841931648e+04 -999 1.38540401e-01 9.557955387e-02 -1.07269207e-01
 106 5 752103 9.5538706438714089e+03 1.5282915540615275e+04 5.6503478616861981e-14 5.4536971499838701e+03 9.2256024369929000e+03 4.4428044073965815e+04 -999 1.38229010e-01 9.394608352e-02 -1.07560268e-01
 107 5 752103 9.3978434115539276e+03 1.4655702997167698e+04 3.4487869825317839e-14 5.2496547105678392e+03 9.0348941019056620e+03 4.1690298001891293e+04 -999 1.38092655e-01 9.249912252e-02 -1.07820403e-01
 108 5 752103 9.2570972602200345e+03 1.4037237128775674e+04 2.4378353590629225e-14 5.1270129018164062e+03 8.8686199463688517e+03 3.8957215564989274e+04 -999 1.38122186e-01 9.121160512e-02 -1.08064809e-01
 109 5 752103 9.1316200462201905e+03 1.3455106534186812e+04 1.9639216036885244e-14 5.2172609299431788e+03 8.7319413478586703e+03 3.6301500235362859e+04 -999 1.38309832e-01 9.007112080e-02 -1.08302888e-01
 110 5 752103 9.0308122256949518e+03 1.2920575731866287e+04 1.7280967940948986e-14 5.5013221412254434e+03 8.6289730094937095e+03 3.3561472918946733e+04 -999 1.38651221e-01 8.906063822e-02 -1.08543034e-01
 111 5 752103 8.7292863380849994e+03 1.2286368024060919e+04 1.4251952046813787e-13 5.7369654258268329e+03 8.3137638888233669e+03 3.0592632059134048e+04 -999 1.39309080e-01 8.795955875e-02 -1.08864950e-01
 112 5 752103 8.5413647718641823e+03 1.1803551354700203e+04 2.3747116798016250e-13 6.0827451570358671e+03 8.1069335708855742e+03 2.7696277144564261e+04 -999 1.40234577e-01 8.698492691e-02 -1.09228366e-01
 113 5 752103 8.4355891288892017e+03 1.1489322321188019e+04 3.1574778911989321e-13 6.4840853827218671e+03 7.9855971669499932e+03 2.5096084361558853e+04 -999 1.41435240e-01 8.609379964e-02 -1.09655056e-01
 114 5 752103 8.4334809872352253e+03 1.1367750714238036e+04 3.9030500969782983e-13 6.9672246264934447e+03 7.9766540341538193e+03 2.3243869984736222e+04 -999 1.42924937e-01 8.525124668e-02 -1.10172646e-01
 115 5 752103 8.5360094795591776e+03 1.1452615315639214e+04 4.5668392141492710e-13 7.5066567658358827e+03 8.0790619486637470e+03 2.2302088704536429e+04 -999 1.44721784e-01 8.443660270e-02 -1.10811731e-01
 116 5 752103 8.4415436258200225e+03 1.1454511152313076e+04 3.1649717237030105e-12 7.9665073165567201e+03 8.0447700868098937e+03 2.2687920714855492e+04 -999 1.47461811e-01 8.345443988e-02 -1.11851801e-01
 117 5 752103 8.4393055988963097e+03 1.1649960384214541e+04 3.9835302953107723e-12 8.2534411200092727e+03 8.1084889612029228e+03 2.6341350462619601e+04 -999 1.50691443e-01 8.251606943e-02 -1.13156564e-01
 118 5 752103 8.5042147514403532e+03 1.1975893010931768e+04 3.9857219463908127e-12 8.4018718605956674e+03 8.2406489698460719e+03 3.7346788125950021e+04 -999 1.54405784e-01 8.162294354e-02 -1.14744474e-01
 119 5 752103 8.7492858452386627e+03 1.2658496785673822e+04 3.7860840267282326e-12 8.4564013706234946e+03 8.6770754025001606e+03 5.7153723083017270e+04 -999 1.58593433e-01 8.078069315e-02 -1.16620495e-01
 120 5 752103 9.3891307478584622e+03 1.4640564801332397e+04 3.6876075937153920e-12 8.6209707833269749e+03 1.1352655944710124e+04 8.5398164412732018e+04 -999 1.63235838e-01 7.998813311e-02 -1.18777499e-01
 121 5 752103 9.2467049532294150e+03 1.3459084967508536e+04 2.4109225818651579e-11 8.3260217531070575e+03 9.0510989106055931e+03 1.2202926235407959e+05 -999 1.67845436e-01 7.933072958e-02 -1.20980456e-01
 122 5 752103 9.3217624995457390e+03 1.4527675561719847e+04 9.7161536137674751e-11 8.0292550399341153e+03 9.3366581225026057e+03 2.0726242056405582e+05 -999 1.72745473e-01 7.873175493e-02 -1.23379523e-01
 123 5 752103 9.1938978111498745e+03 2.8678876785614211e+04 8.8114634851612626e-10 8.0596136891017322e+03 1.1965537693071323e+04 2.5237146327049899e+05 -999 1.76819259e-01 7.828956271e-02 -1.25418296e-01
 124 5 752103 9.0347935587516567e+03 2.8025240282153638e+04 1.1901430940343903e-09 7.8575492195980978e+03 1.2480737240480663e+04 2.7660056766449771e+05 -999 1.77510687e-01 7.821840266e-02 -1.25770251e-01
 125 5 752103 8.9719705719274643e+03 2.5952405232951343e+04 1.3819845141091167e-09 7.8143794362141034e+03 1.2349849206558707e+04 2.7556193655624724e+05 -999 1.77954245e-01 7.817317664e-02 -1.25996709e-01
 126 5 752103 8.7532107142149744e+03 1.3506010209165586e+04 3.1648418796238293e-11 7.3936302248240318e+03 8.6250558507357509e+03 1.5011059381291561e+05 -999 1.81442598e-01 7.780395678e-02 -1.27769390e-01
 127 5 752103 8.5958248681303976e+03 1.2591173624746240e+04 6.5839744319732077e-12 7.2827799666962710e+03 8.4571523101644507e+03 1.3501915112230717e+05 -999 1.84972294e-01 7.747349771e-02 -1.29590712e-01
 128 5 752103 8.4310293266176959e+03 1.3345682118648145e+04 6.2120053735663599e-12 7.5454722217310673e+03 8.6335313879367204e+03 1.2758910773082013e+05 -999 1.88494842e-01 7.714673940e-02 -1.31437902e-01
 129 5 752103 8.3738094829682923e+03 1.8181930011200799e+04 5.9504723749864605e-12 7.2999326318577750e+03 1.0994833688860454e+04 1.1711732523800871e+05 -999 1.89408162e-01 7.705824274e-02 -1.31925248e-01
 130 5 752103 8.3502227751959708e+03 1.8081082904889950e+04 5.9379735614813946e-12 7.2881457908432285e+03 1.1550340805154701e+04 9.9670099845700985e+04 -999 1.89780918e-01 7.702175541e-02 -1.32125141e-01
 131 5 752103 8.1669102890627646e+03 1.1025409642216953e+04 2.0750780595572979e-12 7.2210431903007384e+03 7.9747222987730820e+03 1.1544333779704677e+05 -999 1.94200870e-01 7.659124733e-02 -1.34516588e-01
 132 5 752103 8.0321830423705960e+03 1.0428360914829369e+04 1.7061306026063050e-12 7.2571213053740976e+03 7.8187800582831924e+03 1.3232343001576385e+05 -999 1.98511946e-01 7.613667116e-02 -1.36912014e-01
 133 5 752103 8.0377379544004461e+03 1.1924317323091364e+04 1.5310119209996823e-12 7.3893721972735402e+03 8.0592716885466170e+03 1.1215416207944456e+05 -999 2.02642824e-01 7.565150877e-02 -1.39272904e-01
 134 5 752103 8.0377810456228481e+03 1.6618179232696973e+04 1.5253347950556849e-12 7.4027101398801051e+03 8.8539312699427956e+03 8.9882866912764293e+04 -999 2.03668298e-01 7.551478210e-02 -1.39876570e-01
 135 5 752103 8.0384672541366845e+03 1.9791645491053412e+04 1.5137726082544996e-12 7.3912822988125927e+03 9.1486074547629960e+03 8.0162287093369727e+04 -999 2.04183068e-01 7.544345739e-02 -1.40181975e-01
 136 5 752103 8.1094742381771730e+03 9.4452413821934133e+03 2.6163127912891348e-12 7.5244205079676403e+03 7.8573178895807614e+03 7.9994770063212491e+04 -999 2.08822876e-01 7.477511533e-02 -1.42974411e-01
 137 5 752103 8.2606770332150409e+03 9.0920067658655444e+03 3.1066265460959415e-12 7.5696424068584274e+03 8.0184648374019525e+03 7.8325814287610614e+04 -999 2.13086489e-01 7.406784662e-02 -1.45646654e-01
 138 5 752103 8.4494059883266618e+03 9.9853685875246119e+03 3.4790018101131338e-12 7.7676103355077994e+03 8.3105269611392487e+03 7.5694794417137426e+04 -999 2.16917372e-01 7.332909488e-02 -1.48146181e-01
 139 5 752103 8.4455368338428943e+03 1.9053779301389208e+04 3.3330861972899056e-12 7.9704359725891682e+03 9.3726368413241671e+03 7.3061808457345483e+04 -999 2.18332253e-01 7.301407356e-02 -1.49104662e-01
 140 5 752103 8.4301833196593925e+03 2.2954195895968376e+04 3.0091657915438229e-12 7.5687666807151900e+03 1.0112726959756481e+04 7.0411398947713649e+04 -999 2.18774380e-01 7.290877718e-02 -1.49408182e-01
 141 5 752103 8.2907475943424633e+03 8.4642338662795300e+03 4.3222263358096085e-12 7.4356359164158084e+03 8.1058972989773029e+03 7.7763210451406863e+04 -999 2.22692713e-01 7.195580290e-02 -1.52147193e-01