TITLE = "005.01 ALPHA 3.25 GRIDLEVEL 4"

VARIABLES = "ITERATION"  "GRID_LEVEL"  "GRID_SIZE"  "CONTINUITY"  "MOMENTUMX"  "MOMENTUMY"  "MOMENTUMZ"  "ENERGY"  "TURB1"  "TURB2"  "CL_TOT"  "CD_TOT"  "CM_TOT"

DATASETAUXDATA ParticipantID   = "005"
DATASETAUXDATA SubmissionDate  = "10-31-2024"
DATASETAUXDATA Name            = "Jeffrey A. Housman"
DATASETAUXDATA Email           = "jeffrey.a.housman@nasa.gov"
DATASETAUXDATA Institution     = "NASA Ames Research Center"
DATASETAUXDATA SolverName      = "LAVA Curvilinear"
DATASETAUXDATA BasicAlgorithm  = "RANS"
DATASETAUXDATA TurbulenceModel = "SA-neg"
DATASETAUXDATA GridId          = "Multiblock"
DATASETAUXDATA Discretization  = "Finite difference"
DATASETAUXDATA Order           = "2"
DATASETAUXDATA DistanceCalc    = "Exact"
DATASETAUXDATA Notes           = " "

ZONE T = "005.01 - Alpha 3.25 - Grid Level 4"
AUXDATA Tstatic         = "271.0"
AUXDATA Deltat          = "-999"
AUXDATA GridFileName    = "ONERA-OAT15A_230mmChord_780mmSpan_upZ_2024_06_25-Structured_23mm_Level-4.x"
AUXDATA Misc            = " "
 0 4 430284 3.7741079019683046e+05 1.0623672997781234e+06 0.0000000000000000e+00 3.5831165522626071e+05 3.9570499736789346e+05 1.7146600391116110e+06 -999 1.36612839e-02 7.531088834e-01 -8.04660475e-03
 1 4 430284 5.4638107373312325e+05 8.1228197093223047e+05 0.0000000000000000e+00 2.7970464900111611e+05 5.3260976442359434e+05 1.1140257086258475e+06 -999 4.95314680e-02 7.036790193e-01 -2.30064112e-02
 2 4 430284 6.6586112686286634e+05 7.0394304858947324e+05 0.0000000000000000e+00 3.0807318325423391e+05 6.3953335010556877e+05 7.2691319572947104e+05 -999 9.17322691e-02 6.780101653e-01 -4.03202020e-02
 3 4 430284 7.7779618864306505e+05 6.3454360974857397e+05 0.0000000000000000e+00 3.6386828631407901e+05 7.4543961270384409e+05 4.7469284250671347e+05 -999 1.29641449e-01 6.634364335e-01 -5.62954338e-02
 4 4 430284 8.7992526701243396e+05 5.8295252819859073e+05 0.0000000000000000e+00 4.3206072830996092e+05 8.5091381672917737e+05 3.0464911666279624e+05 -999 1.63291305e-01 6.555920039e-01 -6.89711560e-02
 5 4 430284 9.8243607805533975e+05 5.8541942601291870e+05 0.0000000000000000e+00 5.0502438509538083e+05 9.6906091377717943e+05 1.9533335866449034e+05 -999 1.89123362e-01 6.502937933e-01 -7.84020319e-02
 6 4 430284 9.0104556783452723e+05 6.2548322948380443e+05 0.0000000000000000e+00 5.3351764247591619e+05 8.9140629182789125e+05 9.9428060476153987e+04 -999 2.07021892e-01 6.389095998e-01 -8.56060065e-02
 7 4 430284 9.2382694540216401e+05 6.4016362638003810e+05 0.0000000000000000e+00 5.5584395326095750e+05 9.1002709407827922e+05 7.9509970149217479e+04 -999 2.21634909e-01 6.242593050e-01 -9.20068191e-02
 8 4 430284 9.8383869165717438e+05 6.3315283969477471e+05 0.0000000000000000e+00 5.6762595467807038e+05 9.9003233950273658e+05 6.8271859902688739e+04 -999 2.32980691e-01 6.078236689e-01 -9.67959125e-02
 9 4 430284 1.1851350963103683e+06 6.8818397687935864e+05 0.0000000000000000e+00 6.2479862283803895e+05 1.2321917179804747e+06 6.0824964153010864e+04 -999 2.44490439e-01 5.876831353e-01 -1.01195516e-01
 10 4 430284 1.1110948178155981e+06 5.8343162966527604e+05 0.0000000000000000e+00 5.9454394906705036e+05 1.1495871295722781e+06 5.4811821243884784e+04 -999 2.50518641e-01 5.758931242e-01 -1.03424782e-01
 11 4 430284 1.0212942391805050e+06 5.6988147052668408e+05 0.0000000000000000e+00 5.8086952559624554e+05 1.0407667146070072e+06 4.9572368699812607e+04 -999 2.57502531e-01 5.614331158e-01 -1.06096134e-01
 12 4 430284 9.5001730205592397e+05 5.7377554072410660e+05 0.0000000000000000e+00 5.5805148720988154e+05 9.6157484364974988e+05 4.5328793831248928e+04 -999 2.63075439e-01 5.490212928e-01 -1.08147584e-01
 13 4 430284 1.0504858937458834e+06 5.8422895156985230e+05 0.0000000000000000e+00 5.7923663113988319e+05 1.0810244423255655e+06 4.1994725094869056e+04 -999 2.68593039e-01 5.355240495e-01 -1.10170955e-01
 14 4 430284 9.8106393693573109e+05 5.1451664124558656e+05 0.0000000000000000e+00 5.4411899991671136e+05 1.0053902329649718e+06 3.9105756634045254e+04 -999 2.71454922e-01 5.275563372e-01 -1.11274993e-01
 15 4 430284 1.1515675802281080e+06 6.5478128107481939e+05 0.0000000000000000e+00 5.8882045768073120e+05 1.2264429782967002e+06 3.6650959973720179e+04 -999 2.74593350e-01 5.181172833e-01 -1.12596270e-01
 16 4 430284 9.7324593085638911e+05 5.7938784481555957e+05 0.0000000000000000e+00 5.3106256832966593e+05 1.0309341146099110e+06 3.3813823235051779e+04 -999 2.76533063e-01 5.112345389e-01 -1.13478827e-01
 17 4 430284 8.6552186708678713e+05 4.8281179489732109e+05 0.0000000000000000e+00 4.9981853809866100e+05 8.7930349614900223e+05 3.1374031892218052e+04 -999 2.78821176e-01 5.022989803e-01 -1.14505693e-01
 18 4 430284 8.2384498743316648e+05 4.7245683496348606e+05 0.0000000000000000e+00 4.7875395186002966e+05 8.3274835272614413e+05 2.9265826679009166e+04 -999 2.80439544e-01 4.950779874e-01 -1.15179796e-01
 19 4 430284 9.5667584097819938e+05 5.1201320162714383e+05 0.0000000000000000e+00 4.9364770220301062e+05 1.0047660706958948e+06 2.7476675460905091e+04 -999 2.81978356e-01 4.875588094e-01 -1.15747415e-01
 20 4 430284 8.7875552512269036e+05 4.1848826169320603e+05 0.0000000000000000e+00 4.6818954141721380e+05 9.1092379417576734e+05 2.5907757132651441e+04 -999 2.82902959e-01 4.826298159e-01 -1.16038128e-01
 21 4 430284 8.0164048933906318e+05 4.2657124251975655e+05 0.0000000000000000e+00 4.4707182608388452e+05 8.2916161094555235e+05 2.4106358738841976e+04 -999 2.83803496e-01 4.770385516e-01 -1.16296958e-01
 22 4 430284 7.2019302940845175e+05 4.1173271885787713e+05 0.0000000000000000e+00 4.1711300112674135e+05 7.3689709461151983e+05 2.2547535900838830e+04 -999 2.84717826e-01 4.708999699e-01 -1.16548260e-01
 23 4 430284 7.4127722609307547e+05 4.1195063947002456e+05 0.0000000000000000e+00 4.0972651717737567e+05 7.5905466198305110e+05 2.1183466195010613e+04 -999 2.85619361e-01 4.642117375e-01 -1.16792306e-01
 24 4 430284 7.4478803136535070e+05 3.7320411130838859e+05 0.0000000000000000e+00 4.0136111022742698e+05 7.6190463232082722e+05 1.9977545022939186e+04 -999 2.86243868e-01 4.590607415e-01 -1.16966072e-01
 25 4 430284 8.0543342991462990e+05 4.1124839522621816e+05 0.0000000000000000e+00 3.9988051637609565e+05 8.5062606869013107e+05 1.8901456679205250e+04 -999 2.86751030e-01 4.545829536e-01 -1.17113541e-01
 26 4 430284 6.8049949276980641e+05 3.6585463730454410e+05 0.0000000000000000e+00 3.6897543021511857e+05 7.1611486408648093e+05 1.7667835035878161e+04 -999 2.87184938e-01 4.499709431e-01 -1.17239669e-01
 27 4 430284 6.0061886326474149e+05 3.4709088136713125e+05 0.0000000000000000e+00 3.4518859723677166e+05 6.1604380062084459e+05 1.6578593725445375e+04 -999 2.87629357e-01 4.450341297e-01 -1.17372227e-01
 28 4 430284 6.1085425760847889e+05 3.3710364951182745e+05 0.0000000000000000e+00 3.3454722382033872e+05 6.2259410922230803e+05 1.5620034699688511e+04 -999 2.88097013e-01 4.396484419e-01 -1.17515137e-01
 29 4 430284 6.2546473112225858e+05 3.1683628820374480e+05 0.0000000000000000e+00 3.2808950974192086e+05 6.4320187396494020e+05 1.4791587781969665e+04 -999 2.88442095e-01 4.355643066e-01 -1.17622018e-01
 30 4 430284 6.8605010324778198e+05 3.6167644987531059e+05 0.0000000000000000e+00 3.2991518405437877e+05 7.2848690955372900e+05 1.4051803382260632e+04 -999 2.88741921e-01 4.319435145e-01 -1.17713815e-01
 31 4 430284 5.7634034704220667e+05 3.1629461442127370e+05 0.0000000000000000e+00 3.0218657378512592e+05 6.1217941869786149e+05 1.3160774024790117e+04 -999 2.88992031e-01 4.283671845e-01 -1.17784376e-01
 32 4 430284 4.9176081923952326e+05 2.8803638022515934e+05 0.0000000000000000e+00 2.7782686289783928e+05 5.0836731360571570e+05 1.2350408769996038e+04 -999 2.89277357e-01 4.242604336e-01 -1.17864123e-01
 33 4 430284 4.7779099151507101e+05 2.7494381542900589e+05 0.0000000000000000e+00 2.6304498450544459e+05 4.8543687782364816e+05 1.1631740623565129e+04 -999 2.89568272e-01 4.200431056e-01 -1.17945329e-01
 34 4 430284 5.3508761448957829e+05 2.8403003125694877e+05 0.0000000000000000e+00 2.6333934040272987e+05 5.5593623779156641e+05 1.0998463512280185e+04 -999 2.89840929e-01 4.160516182e-01 -1.18021769e-01
 35 4 430284 5.2976985965878458e+05 2.6133785028086769e+05 0.0000000000000000e+00 2.5765346696936703e+05 5.5388902940114436e+05 1.0449896552609289e+04 -999 2.90027622e-01 4.132834120e-01 -1.18074441e-01
 36 4 430284 4.5911376145036676e+05 2.5266872287291699e+05 0.0000000000000000e+00 2.3778684578807140e+05 4.8440429384031647e+05 9.8042248832766163e+03 -999 2.90209347e-01 4.101618411e-01 -1.18122617e-01
 37 4 430284 3.8869592644831969e+05 2.3088952429033638e+05 0.0000000000000000e+00 2.1620971042664270e+05 4.0384209808548685e+05 9.2186586361308000e+03 -999 2.90412461e-01 4.067256942e-01 -1.18177405e-01
 38 4 430284 3.7033549345100130e+05 2.1484666818294278e+05 0.0000000000000000e+00 2.0180883617311163e+05 3.7474131370841927e+05 8.6774342758482944e+03 -999 2.90638391e-01 4.029543254e-01 -1.18239276e-01
 39 4 430284 4.0045660881208704e+05 2.1438817806132915e+05 0.0000000000000000e+00 1.9830935836382056e+05 4.1290521672514698e+05 8.1987375834520881e+03 -999 2.90835096e-01 3.997083334e-01 -1.18293874e-01
 40 4 430284 4.2916775203537237e+05 2.3388822184901978e+05 0.0000000000000000e+00 1.9762386608702352e+05 4.5500300932222349e+05 7.7793062384831646e+03 -999 2.90991413e-01 3.971467949e-01 -1.18337779e-01
 41 4 430284 3.6364313771627081e+05 2.0434830115239182e+05 0.0000000000000000e+00 1.8089955494171541e+05 3.8826482887385495e+05 7.2891872121352617e+03 -999 2.91132481e-01 3.945349466e-01 -1.18375028e-01
 42 4 430284 2.9998949451048643e+05 1.8492182874434395e+05 0.0000000000000000e+00 1.6380913162749546e+05 3.1457337395779626e+05 6.8482489937462360e+03 -999 2.91298862e-01 3.915281821e-01 -1.18419702e-01
 43 4 430284 2.7532990798052435e+05 1.6908625061066070e+05 0.0000000000000000e+00 1.5092291665545752e+05 2.7859526449348510e+05 6.4486417743641532e+03 -999 2.91481408e-01 3.883056528e-01 -1.18469476e-01
 44 4 430284 2.9678371443156950e+05 1.7045307995019879e+05 0.0000000000000000e+00 1.4646976553041756e+05 3.0433995717831742e+05 6.0863205711439623e+03 -999 2.91650775e-01 3.853744383e-01 -1.18516282e-01
 45 4 430284 3.2649081550877792e+05 1.8001813578488523e+05 0.0000000000000000e+00 1.4667749492261233e+05 3.4242412866908585e+05 5.7616688703995342e+03 -999 2.91800438e-01 3.828174053e-01 -1.18558135e-01
 46 4 430284 2.7667544127022009e+05 1.6294496075777372e+05 0.0000000000000000e+00 1.3419927729465111e+05 2.9596132403497194e+05 5.3613257977872781e+03 -999 2.91920968e-01 3.805284866e-01 -1.18589905e-01
 47 4 430284 2.2220888251723596e+05 1.4432772940177494e+05 0.0000000000000000e+00 1.1980507991667985e+05 2.3573361450782101e+05 5.0036144975889902e+03 -999 2.92068157e-01 3.778148013e-01 -1.18629129e-01
 48 4 430284 1.9537605044848539e+05 1.3044497950176137e+05 0.0000000000000000e+00 1.0806006384052767e+05 1.9881045444692744e+05 4.6838998845243741e+03 -999 2.92234398e-01 3.748241043e-01 -1.18674105e-01
 49 4 430284 2.0455552238598326e+05 1.2875963434530825e+05 0.0000000000000000e+00 1.0247702255744828e+05 2.0937175254928737e+05 4.3977115578837947e+03 -999 2.92390649e-01 3.720750443e-01 -1.18717040e-01
 50 4 430284 2.2269510236130463e+05 1.3775523930975472e+05 0.0000000000000000e+00 1.0054422993411444e+05 2.3483491376240167e+05 4.1432790255386599e+03 -999 2.92525841e-01 3.697327439e-01 -1.18754820e-01
 51 4 430284 1.8859348133096582e+05 1.2048205295404921e+05 0.0000000000000000e+00 9.1729508698173100e+04 2.0247194944239617e+05 3.8170868957578027e+03 -999 2.92642330e-01 3.675333146e-01 -1.18785844e-01
 52 4 430284 1.5148678933155056e+05 1.0641250722484758e+05 0.0000000000000000e+00 8.2049896631203024e+04 1.6258442865519776e+05 3.5108622141018659e+03 -999 2.92782320e-01 3.649463602e-01 -1.18823751e-01
 53 4 430284 1.2941906309117621e+05 9.6502971735488754e+04 0.0000000000000000e+00 7.3312532907818284e+04 1.3445896090779349e+05 3.2490000018306964e+03 -999 2.92944065e-01 3.620223037e-01 -1.18868399e-01
 54 4 430284 1.2926003248132351e+05 9.3036514445150679e+04 0.0000000000000000e+00 6.8065858062188214e+04 1.3305806054601699e+05 3.0163980064816128e+03 -999 2.93103570e-01 3.591952378e-01 -1.18913591e-01
 55 4 430284 1.3470040537682676e+05 9.4153485856736414e+04 0.0000000000000000e+00 6.5191413996951444e+04 1.4118809901623850e+05 2.8181758263644656e+03 -999 2.93243774e-01 3.567417186e-01 -1.18954752e-01
 56 4 430284 1.1564903990065587e+05 8.6105683591651905e+04 0.0000000000000000e+00 6.0100759074146823e+04 1.2351548457746157e+05 2.5447599244745684e+03 -999 2.93359709e-01 3.545378718e-01 -1.18988313e-01
 57 4 430284 9.3768400607793737e+04 7.8495444125160284e+04 0.0000000000000000e+00 5.4273541808859663e+04 1.0097926420071104e+05 2.3174138681222385e+03 -999 2.93500531e-01 3.519040072e-01 -1.19029961e-01
 58 4 430284 7.7780133523455879e+04 7.1891919639043001e+04 0.0000000000000000e+00 4.8475948882761870e+04 8.2192574883560359e+04 2.1045142953167647e+03 -999 2.93668586e-01 3.488113729e-01 -1.19081134e-01
 59 4 430284 7.2734211459376354e+04 6.8060405636343829e+04 0.0000000000000000e+00 4.4373305853619910e+04 7.5581989554213797e+04 1.9298548087121039e+03 -999 2.93835584e-01 3.457780918e-01 -1.19134350e-01
 60 4 430284 7.0921355082372058e+04 6.5796341032121709e+04 0.0000000000000000e+00 4.1545913232112907e+04 7.3760376627917023e+04 1.7807846735349965e+03 -999 2.93987302e-01 3.430342023e-01 -1.19185840e-01
 61 4 430284 6.1880878505044064e+04 6.2227574273251979e+04 0.0000000000000000e+00 3.8561304422773130e+04 6.5152673350798381e+04 1.5932143245058057e+03 -999 2.94106609e-01 3.406224081e-01 -1.19225438e-01
 62 4 430284 5.1231773366454392e+04 5.8384593749642219e+04 0.0000000000000000e+00 3.5049902235488633e+04 5.4120616700630708e+04 1.4213891232464734e+03 -999 2.94252600e-01 3.376756659e-01 -1.19274595e-01
 63 4 430284 4.2448630854370895e+04 5.4483339406341744e+04 0.0000000000000000e+00 3.1289779851925188e+04 4.4112693554374280e+04 1.2826704746550718e+03 -999 2.94427534e-01 3.341319040e-01 -1.19334942e-01
 64 4 430284 3.7989050793854673e+04 5.1407964927868248e+04 0.0000000000000000e+00 2.8234180287455558e+04 3.8854196659941168e+04 1.1696160897264567e+03 -999 2.94598619e-01 3.306121255e-01 -1.19396863e-01
 65 4 430284 3.5132481035717850e+04 4.8998239555729284e+04 0.0000000000000000e+00 2.5873512601731796e+04 3.5664679554622606e+04 1.0773530146845876e+03 -999 2.94751244e-01 3.273728095e-01 -1.19456458e-01
 66 4 430284 3.1188398962134746e+04 4.6684078747144042e+04 0.0000000000000000e+00 2.3917336298035731e+04 3.1711209578954444e+04 9.6131220235675335e+02 -999 2.94849172e-01 3.243965038e-01 -1.19487551e-01
 67 4 430284 2.6707381721071644e+04 4.4038066802288093e+04 0.0000000000000000e+00 2.1638946411282195e+04 2.7019593690463007e+04 8.7037642282642105e+02 -999 2.94960763e-01 3.206692991e-01 -1.19520354e-01
 68 4 430284 2.2840003970024118e+04 4.1188272123501156e+04 0.0000000000000000e+00 1.9194688265067896e+04 2.2872170476122690e+04 8.0476112072403919e+02 -999 2.95080646e-01 3.161059696e-01 -1.19551243e-01
 69 4 430284 2.0369287050489165e+04 3.8709073225755383e+04 0.0000000000000000e+00 1.7016010661919830e+04 2.0407881672722549e+04 7.5827085342812882e+02 -999 2.95185692e-01 3.114685543e-01 -1.19568685e-01
 70 4 430284 1.8762092056629572e+04 3.6688585914572737e+04 0.0000000000000000e+00 1.5406917560718695e+04 1.8981404772976701e+04 7.2312951317403508e+02 -999 2.95267543e-01 3.070856301e-01 -1.19575802e-01
 71 4 430284 1.6872770829951638e+04 3.4662330894203857e+04 0.0000000000000000e+00 1.4012004038185645e+04 1.7408917180613866e+04 6.7411771561484727e+02 -999 2.95283835e-01 3.022644147e-01 -1.19507228e-01
 72 4 430284 1.5115436677848465e+04 3.2372553476541187e+04 0.0000000000000000e+00 1.2679213597750904e+04 1.6042345256152317e+04 6.6183332959284189e+02 -999 2.95312518e-01 2.959011708e-01 -1.19401472e-01
 73 4 430284 1.4182815463946017e+04 3.0097585884821558e+04 0.0000000000000000e+00 1.1805709078522304e+04 1.5533712506577023e+04 6.8912030638416320e+02 -999 2.95380595e-01 2.880154618e-01 -1.19263008e-01
 74 4 430284 1.4186149631750850e+04 2.8312206145386037e+04 0.0000000000000000e+00 1.1610076970334247e+04 1.5876371781496189e+04 7.4539245440736079e+02 -999 2.95516764e-01 2.799424353e-01 -1.19138211e-01
 75 4 430284 1.4578381316301167e+04 2.6945340331104115e+04 0.0000000000000000e+00 1.1756442040115477e+04 1.6511860835144962e+04 8.4772387984627198e+02 -999 2.95740586e-01 2.719421185e-01 -1.19058996e-01
 76 4 430284 1.4206915737039037e+04 2.4924459045961619e+04 0.0000000000000000e+00 1.0984988230511835e+04 1.6375459115489813e+04 1.0608298519851587e+03 -999 2.96249417e-01 2.608613088e-01 -1.19046652e-01
 77 4 430284 1.4330298232564604e+04 2.3121801044780015e+04 0.0000000000000000e+00 1.0439972909456170e+04 1.6570154942921028e+04 1.6775636115987504e+03 -999 2.97266823e-01 2.452947485e-01 -1.19258065e-01
 78 4 430284 1.4613071338672324e+04 2.2384994676425711e+04 0.0000000000000000e+00 1.0245188201280167e+04 1.6724125718276464e+04 3.4851541920862765e+03 -999 2.98736116e-01 2.279801860e-01 -1.19937890e-01
 79 4 430284 1.4939526284699206e+04 2.2784018094010949e+04 0.0000000000000000e+00 1.0338106365868358e+04 1.6735754962004867e+04 1.0172678124135105e+04 -999 3.00261877e-01 2.108484764e-01 -1.21183420e-01
 80 4 430284 1.5365375245889933e+04 2.3624908229913806e+04 0.0000000000000000e+00 1.0526588782355471e+04 1.6773414755049555e+04 2.1183856626748402e+04 -999 3.01164810e-01 1.975873023e-01 -1.22575379e-01
 81 4 430284 1.3462007794601441e+04 1.9426930463021228e+04 0.0000000000000000e+00 9.6942567267065915e+03 1.4654906295910312e+04 1.0692343244745395e+05 -999 3.02136293e-01 1.736051271e-01 -1.25727922e-01
 82 4 430284 1.2113266477361660e+04 1.7928875111628997e+04 0.0000000000000000e+00 9.5433343893722213e+03 1.3145251998085418e+04 1.9991730610570865e+05 -999 3.01285107e-01 1.507656082e-01 -1.28982147e-01
 83 4 430284 1.1485053144044650e+04 2.7300181884981070e+04 0.0000000000000000e+00 9.4059713032051332e+03 1.4076420028504617e+04 1.5761305735934663e+05 -999 3.00251460e-01 1.449527354e-01 -1.29567165e-01
 84 4 430284 1.1319529391664022e+04 2.7151557871893296e+04 0.0000000000000000e+00 8.8889002578037380e+03 1.3413037326966409e+04 1.0325602753207156e+05 -999 2.99907759e-01 1.435379752e-01 -1.29662011e-01
 85 4 430284 1.1216902670833846e+04 2.5451552569337538e+04 0.0000000000000000e+00 8.7827831564683456e+03 1.2542674645048804e+04 6.2980967606837694e+04 -999 2.99681687e-01 1.426539192e-01 -1.29714255e-01
 86 4 430284 1.0931094804832528e+04 1.5686953613134690e+04 0.0000000000000000e+00 8.6488291350779855e+03 1.1477321535278708e+04 4.1506624801361475e+04 -999 2.99490251e-01 1.404786693e-01 -1.29944687e-01
 87 4 430284 1.0723208975446900e+04 1.5646492883788451e+04 0.0000000000000000e+00 8.4767709251852339e+03 1.1167992734262420e+04 4.2875565518090749e+04 -999 2.99262612e-01 1.383096927e-01 -1.30162535e-01
 88 4 430284 1.0571344811655365e+04 1.5749339813463252e+04 0.0000000000000000e+00 8.2513477770712761e+03 1.0915912310496182e+04 4.4169946535207157e+04 -999 2.99013989e-01 1.362032388e-01 -1.30371256e-01
 89 4 430284 1.0506841427533658e+04 1.5945915649175968e+04 0.0000000000000000e+00 8.0567695385147545e+03 1.0743648664425140e+04 4.5314541381350376e+04 -999 2.98743578e-01 1.341925561e-01 -1.30569659e-01
 90 4 430284 1.0538315695333453e+04 1.6172255180682001e+04 0.0000000000000000e+00 7.8041486286677355e+03 1.0665657504544444e+04 4.6290382208337331e+04 -999 2.98446760e-01 1.322963522e-01 -1.30754825e-01
 91 4 430284 1.0646368519719601e+04 1.6566571059070367e+04 0.0000000000000000e+00 7.5602827440922301e+03 1.0637402449408079e+04 4.6847559415525495e+04 -999 2.97980578e-01 1.299058568e-01 -1.30974932e-01
 92 4 430284 1.0668232861196380e+04 1.6874182330152675e+04 0.0000000000000000e+00 7.3482743012866731e+03 1.0569219390168382e+04 4.7435593940039871e+04 -999 2.97459092e-01 1.276808121e-01 -1.31165877e-01
 93 4 430284 1.0497105224706434e+04 1.7057671896143085e+04 0.0000000000000000e+00 7.1904526692727641e+03 1.0349912279874545e+04 4.7823818715040252e+04 -999 2.96879293e-01 1.255930819e-01 -1.31323786e-01
 94 4 430284 1.0151498828396201e+04 1.7135700901687076e+04 0.0000000000000000e+00 7.1434709414694589e+03 9.9946525929862401e+03 4.8002762775798794e+04 -999 2.96237092e-01 1.236173508e-01 -1.31445086e-01
 95 4 430284 9.7482805886738388e+03 1.7158625590170843e+04 0.0000000000000000e+00 7.2462161316470265e+03 9.6075476494259674e+03 4.7973455754807401e+04 -999 2.95530416e-01 1.217376873e-01 -1.31526517e-01
 96 4 430284 9.3792731687984051e+03 1.7188159711337903e+04 0.0000000000000000e+00 7.4223139654201650e+03 9.2673523798114893e+03 4.7762300355650397e+04 -999 2.94759384e-01 1.199457005e-01 -1.31562303e-01
 97 4 430284 9.0635533080246187e+03 1.7103691156696776e+04 0.0000000000000000e+00 7.6153176793675138e+03 8.9728063840238519e+03 4.7246704581288141e+04 -999 2.93928980e-01 1.182402775e-01 -1.31555226e-01
 98 4 430284 8.8192060494574944e+03 1.7060768406827206e+04 0.0000000000000000e+00 7.7909579265711145e+03 8.7374409320891991e+03 4.6440449368474205e+04 -999 2.93044686e-01 1.166212508e-01 -1.31502618e-01
 99 4 430284 8.6332181684904135e+03 1.7014193502158290e+04 0.0000000000000000e+00 7.8633028773011602e+03 8.5459861363663003e+03 4.5395470729601242e+04 -999 2.92110157e-01 1.150859025e-01 -1.31401884e-01
 100 4 430284 8.4857621601980973e+03 1.6948135265181609e+04 0.0000000000000000e+00 7.8234268040490670e+03 8.3812833127802423e+03 4.4246355557620183e+04 -999 2.91130593e-01 1.136298001e-01 -1.31251489e-01
 101 4 430284 8.3267718250704602e+03 1.6717620925117073e+04 0.0000000000000000e+00 7.6416883276963335e+03 8.1937666866111977e+03 4.2250165356731355e+04 -999 2.89840217e-01 1.119095307e-01 -1.30985133e-01
 102 4 430284 8.2027584626112985e+03 1.6423200011477438e+04 0.0000000000000000e+00 7.3576473697932570e+03 8.0341314924527851e+03 3.9709651791888500e+04 -999 2.88513193e-01 1.102814749e-01 -1.30650168e-01
 103 4 430284 8.1219183226420109e+03 1.6075360810820301e+04 0.0000000000000000e+00 7.0191202590612820e+03 7.9102905899537109e+03 3.7062163253972962e+04 -999 2.87173448e-01 1.087359111e-01 -1.30256836e-01
 104 4 430284 8.0602898543256497e+03 1.5680444618079975e+04 0.0000000000000000e+00 6.6863086470797180e+03 7.8076169753363411e+03 3.4424726658548963e+04 -999 2.85849615e-01 1.072632285e-01 -1.29818199e-01
 105 4 430284 8.0349284462979922e+03 1.5253692449498410e+04 0.0000000000000000e+00 6.3941279707134281e+03 7.7385089399538820e+03 3.1925898897882365e+04 -999 2.84575998e-01 1.058599278e-01 -1.29349100e-01
 106 4 430284 7.9760485813726564e+03 1.4629035554867634e+04 0.0000000000000000e+00 6.1146985294575943e+03 7.6364966716091103e+03 2.9109356422188554e+04 -999 2.83126405e-01 1.042137130e-01 -1.28743939e-01
 107 4 430284 7.9434942602298761e+03 1.4033911997844849e+04 0.0000000000000000e+00 5.9950983956759537e+03 7.5700649877151400e+03 2.6445842732327710e+04 -999 2.81902953e-01 1.027043637e-01 -1.28149826e-01
 108 4 430284 7.9150007075064550e+03 1.3442782086994952e+04 0.0000000000000000e+00 6.0013448785429973e+03 7.5098150312420867e+03 2.4350378617159917e+04 -999 2.80945501e-01 1.013338920e-01 -1.27582465e-01
 109 4 430284 7.8796302481409384e+03 1.2892330735185931e+04 0.0000000000000000e+00 6.1224821152361683e+03 7.4602312249171036e+03 2.2491044887321863e+04 -999 2.80286480e-01 1.001006079e-01 -1.27057293e-01
 110 4 430284 7.8324464099643992e+03 1.2394366345141927e+04 0.0000000000000000e+00 6.3449755768453815e+03 7.4166838300815061e+03 2.0930152263865421e+04 -999 2.79937817e-01 9.898642144e-02 -1.26584435e-01
 111 4 430284 7.5972270798015415e+03 1.1808502869467062e+04 0.0000000000000000e+00 6.5974810516435609e+03 7.2032275146795000e+03 1.9357115715864860e+04 -999 2.79972578e-01 9.772927148e-02 -1.26087668e-01
 112 4 430284 7.4365030911077547e+03 1.1316961346821054e+04 0.0000000000000000e+00 6.9267106194149883e+03 7.0581292506479813e+03 1.8001588368875626e+04 -999 2.80486757e-01 9.656280165e-02 -1.25698122e-01
 113 4 430284 7.3431251062912661e+03 1.0960388216787860e+04 0.0000000000000000e+00 7.2603148775121135e+03 6.9683069904086187e+03 1.6902004202262022e+04 -999 2.81472525e-01 9.545188806e-02 -1.25429654e-01
 114 4 430284 7.3190212711282638e+03 1.0772470502998509e+04 0.0000000000000000e+00 7.4946195068538264e+03 6.9167170592251641e+03 1.6201820194811486e+04 -999 2.82937615e-01 9.438182850e-02 -1.25301601e-01
 115 4 430284 7.4086601617518545e+03 1.0790616963578675e+04 0.0000000000000000e+00 7.8224284251799027e+03 6.9776256015522285e+03 1.6279429770503893e+04 -999 2.84898939e-01 9.334695626e-02 -1.25336041e-01
 116 4 430284 7.3110445166427508e+03 1.0817982873752027e+04 0.0000000000000000e+00 8.1961238907042152e+03 6.9184504007932846e+03 1.7182396717078562e+04 -999 2.88125982e-01 9.213937940e-02 -1.25663988e-01
 117 4 430284 7.4114222705181865e+03 1.1120194614835606e+04 0.0000000000000000e+00 8.5347076042512690e+03 7.0690807359557502e+03 1.9061363544689913e+04 -999 2.92107184e-01 9.103831045e-02 -1.26292925e-01
 118 4 430284 7.5384955899193919e+03 1.1555405912764965e+04 0.0000000000000000e+00 8.7662677289495496e+03 7.2530936982831290e+03 2.2064741919494249e+04 -999 2.96764268e-01 9.002251506e-02 -1.27219692e-01
 119 4 430284 7.7293810531483823e+03 1.2109273476409659e+04 0.0000000000000000e+00 8.8121251616417994e+03 7.5011243708596021e+03 2.6216643218372577e+04 -999 3.01995487e-01 8.906021738e-02 -1.28426676e-01
 120 4 430284 8.0922851932364683e+03 1.2911572232481672e+04 0.0000000000000000e+00 8.6943453237598987e+03 8.1484062199001464e+03 3.6130814887097418e+04 -999 3.07688663e-01 8.813222347e-02 -1.29888772e-01
 121 4 430284 7.6837046525127380e+03 1.2293024146580377e+04 0.0000000000000000e+00 8.5284286230041253e+03 7.5696468443106323e+03 4.6045865954456822e+04 -999 3.13092224e-01 8.733734415e-02 -1.31383739e-01
 122 4 430284 8.0113731968506327e+03 1.2790036920450928e+04 0.0000000000000000e+00 8.5916889312801650e+03 8.0257716428685490e+03 7.0337190340801651e+04 -999 3.18713005e-01 8.660492103e-02 -1.33048357e-01
 123 4 430284 8.6003971438918270e+03 1.7244480175461369e+04 0.0000000000000000e+00 8.8406452763687594e+03 9.3594023871174104e+03 1.0063950620879010e+05 -999 3.24475224e-01 8.588837701e-02 -1.34864168e-01
 124 4 430284 8.5983394544646562e+03 2.2588400734749106e+04 0.0000000000000000e+00 8.9149252794382865e+03 1.0938307166812072e+04 1.3075716735107290e+05 -999 3.26002881e-01 8.569534963e-02 -1.35373966e-01
 125 4 430284 8.6039556363875727e+03 2.3860370762474719e+04 0.0000000000000000e+00 8.9310668255511446e+03 1.1819833416392248e+04 1.2459702831192488e+05 -999 3.26785508e-01 8.559608201e-02 -1.35638842e-01
 126 4 430284 8.7416873357025506e+03 1.3609732188627300e+04 0.0000000000000000e+00 8.8237859080731341e+03 8.6662389509662171e+03 8.1077943305575274e+04 -999 3.30791855e-01 8.508323525e-02 -1.36982169e-01
 127 4 430284 8.9459465920628172e+03 1.3086492280342292e+04 0.0000000000000000e+00 8.8032886947218449e+03 8.8475550707646144e+03 7.3181149096310677e+04 -999 3.34840845e-01 8.457669192e-02 -1.38390966e-01
 128 4 430284 9.0272213282828525e+03 1.3338288038448745e+04 0.0000000000000000e+00 8.7469109362917261e+03 8.9978155393109300e+03 7.4613237733993708e+04 -999 3.38886282e-01 8.409639184e-02 -1.39848110e-01
 129 4 430284 8.9733019317703074e+03 2.3280830364375193e+04 0.0000000000000000e+00 8.8401602324299856e+03 1.0862949069573568e+04 7.3401526365382844e+04 -999 3.40939279e-01 8.386135433e-02 -1.40610386e-01
 130 4 430284 8.9436089834981376e+03 2.5811355133028374e+04 0.0000000000000000e+00 8.7336239358736002e+03 1.1837808845398640e+04 7.2106946840684512e+04 -999 3.41470768e-01 8.380124568e-02 -1.40810284e-01
 131 4 430284 8.7967212457990845e+03 1.2111826257492468e+04 0.0000000000000000e+00 8.6657037829113578e+03 8.7571440115924488e+03 7.5171822975866686e+04 -999 3.46348730e-01 8.324197702e-02 -1.42657590e-01
 132 4 430284 8.6139063985364974e+03 1.1538115333152675e+04 0.0000000000000000e+00 8.5657832080955213e+03 8.5740056723005600e+03 7.7372250599766674e+04 -999 3.51065170e-01 8.272063820e-02 -1.44488620e-01
 133 4 430284 8.4292369434882603e+03 1.2223046213024982e+04 0.0000000000000000e+00 8.6469702755086673e+03 8.5408256172650545e+03 7.9300722546377030e+04 -999 3.55542178e-01 8.220336626e-02 -1.46261484e-01
 134 4 430284 8.3583058440756122e+03 2.0411923281406285e+04 0.0000000000000000e+00 8.7701989057211322e+03 1.2651922484126735e+04 7.8274964922499159e+04 -999 3.57257843e-01 8.198205546e-02 -1.46952384e-01
 135 4 430284 8.3348078845161381e+03 2.1965050677056050e+04 0.0000000000000000e+00 8.6541650465149851e+03 1.9797706535524314e+04 7.3976063334085702e+04 -999 3.57803024e-01 8.190844238e-02 -1.47173379e-01
 136 4 430284 8.1885732526788443e+03 1.0584329871206026e+04 0.0000000000000000e+00 8.5855944055217351e+03 8.1549518611025842e+03 7.4147411690060981e+04 -999 3.62729428e-01 8.121362834e-02 -1.49184546e-01
 137 4 430284 8.0161500934815331e+03 1.0226060601905763e+04 0.0000000000000000e+00 8.4760844965665328e+03 7.9419383430026892e+03 7.3155484988255863e+04 -999 3.67240963e-01 8.050892615e-02 -1.51071696e-01
 138 4 430284 7.9685807753536537e+03 1.1431076064046660e+04 0.0000000000000000e+00 8.6265716757884657e+03 7.9638503433664555e+03 7.1670672390398773e+04 -999 3.71334493e-01 7.976787098e-02 -1.52826379e-01
 139 4 430284 7.9473236797083919e+03 1.7136429356277818e+04 0.0000000000000000e+00 8.6185816426725250e+03 8.3236840871977311e+03 6.8636868771875743e+04 -999 3.72552356e-01 7.951461566e-02 -1.53361634e-01
 140 4 430284 7.9372083681477234e+03 1.7397758449846588e+04 0.0000000000000000e+00 8.4534095426816912e+03 8.5321794721146216e+03 6.4381917841383700e+04 -999 3.73036084e-01 7.941068258e-02 -1.53575976e-01
 141 4 430284 7.8365599896984622e+03 9.3038608566857783e+03 0.0000000000000000e+00 8.3820228307797606e+03 7.8026862712879911e+03 6.5410756652934164e+04 -999 3.77924391e-01 7.835118534e-02 -1.55779994e-01