TITLE = "005.01 ALPHA 3.10 GRIDLEVEL 5"

VARIABLES = "ITERATION"  "GRID_LEVEL"  "GRID_SIZE"  "CONTINUITY"  "MOMENTUMX"  "MOMENTUMY"  "MOMENTUMZ"  "ENERGY"  "TURB1"  "TURB2"  "CL_TOT"  "CD_TOT"  "CM_TOT"

DATASETAUXDATA ParticipantID   = "005"
DATASETAUXDATA SubmissionDate  = "10-31-2024"
DATASETAUXDATA Name            = "Jeffrey A. Housman"
DATASETAUXDATA Email           = "jeffrey.a.housman@nasa.gov"
DATASETAUXDATA Institution     = "NASA Ames Research Center"
DATASETAUXDATA SolverName      = "LAVA Curvilinear"
DATASETAUXDATA BasicAlgorithm  = "RANS"
DATASETAUXDATA TurbulenceModel = "SA-neg"
DATASETAUXDATA GridId          = "Multiblock"
DATASETAUXDATA Discretization  = "Finite difference"
DATASETAUXDATA Order           = "2"
DATASETAUXDATA DistanceCalc    = "Exact"
DATASETAUXDATA Notes           = " "

ZONE T = "005.01 - Alpha 3.10 - Grid Level 5"
AUXDATA Tstatic         = "271.0"
AUXDATA Deltat          = "-999"
AUXDATA GridFileName    = "ONERA-OAT15A_230mmChord_780mmSpan_upZ_2024_06_25-Structured_23mm_Level-5.x"
AUXDATA Misc            = " "
 0 5 752103 4.9338587399928423e+05 1.5883061847029412e+06 7.6804932303233620e-14 4.8451354479343182e+05 5.2347562934780930e+05 2.7112785474090734e+06 -999 1.57535282e-02 9.097841257e-01 -9.52946026e-03
 1 5 752103 7.3420086449922330e+05 1.1850423505719567e+06 6.5422385959674339e-14 3.6811056228631613e+05 7.1548654032759031e+05 1.7630287976067623e+06 -999 4.91922259e-02 8.315971192e-01 -2.35110762e-02
 2 5 752103 8.9963682737282920e+05 1.0097066601280809e+06 5.7055585886872460e-14 4.0409582043343526e+05 8.6402252786150819e+05 1.1514610149169238e+06 -999 8.94274252e-02 7.858846860e-01 -4.02693636e-02
 3 5 752103 1.0473466727178753e+06 9.0052884851051611e+05 5.0686954863839341e-14 4.8051369646945980e+05 1.0046112283363182e+06 7.5621413555916492e+05 -999 1.26263663e-01 7.560975388e-01 -5.57905525e-02
 4 5 752103 1.1747537554280739e+06 8.2401865137881634e+05 4.5733617028440181e-14 5.7370952252422017e+05 1.1382212787988889e+06 4.8947121110561234e+05 -999 1.59075244e-01 7.359304629e-01 -6.82032120e-02
 5 5 752103 1.3070093598866849e+06 8.2526380466229841e+05 4.1851172789923397e-14 6.7110382089800260e+05 1.2965855028282178e+06 3.1653187048637262e+05 -999 1.83700019e-01 7.201109238e-01 -7.74039676e-02
 6 5 752103 1.1938962728892192e+06 8.5200937337112823e+05 3.8923360627706190e-14 7.0519953800047643e+05 1.1861771900618896e+06 1.6898695520377814e+05 -999 2.00654947e-01 6.991301735e-01 -8.44585834e-02
 7 5 752103 1.2253456591840377e+06 8.5927820522857248e+05 3.6313192951171616e-14 7.3593860713842441e+05 1.2145005432829107e+06 1.2033808347434316e+05 -999 2.14681705e-01 6.762298305e-01 -9.07594945e-02
 8 5 752103 1.2883372600142073e+06 8.4041988054048538e+05 3.4388751425267092e-14 7.5616123935406108e+05 1.2973088655144945e+06 9.9546525231451116e+04 -999 2.25704662e-01 6.536266225e-01 -9.54710614e-02
 9 5 752103 1.5585438368582346e+06 9.1634309013918717e+05 3.2778232978320944e-14 8.3398464496128086e+05 1.6292557854620228e+06 8.7590311824673990e+04 -999 2.36300219e-01 6.284637962e-01 -9.96264812e-02
 10 5 752103 1.4564141773291675e+06 7.6422088751501485e+05 3.1858853416162947e-14 8.0292036185955745e+05 1.5010041181124346e+06 7.8644146651434567e+04 -999 2.42004814e-01 6.134924333e-01 -1.01802142e-01
 11 5 752103 1.3796184560243925e+06 7.8738147923534352e+05 3.0802372208235620e-14 7.9466654118518822e+05 1.4117051138626058e+06 7.1230350982061835e+04 -999 2.47893714e-01 5.968545177e-01 -1.04105614e-01
 12 5 752103 1.2799698634098652e+06 7.6664606012330623e+05 2.9780113064768300e-14 7.6628507044063741e+05 1.2963192001440623e+06 6.5488955659445142e+04 -999 2.52921980e-01 5.812472499e-01 -1.05997473e-01
 13 5 752103 1.4291173410013374e+06 8.1364525152982958e+05 2.8822145498176266e-14 8.0307293385689170e+05 1.4778997936160557e+06 6.0864379778845207e+04 -999 2.57703684e-01 5.648413226e-01 -1.07808837e-01
 14 5 752103 1.3457665009796743e+06 6.9768121250712732e+05 2.8252644037828550e-14 7.6713324657854158e+05 1.3739699484554068e+06 5.6814583658572941e+04 -999 2.60390035e-01 5.546332493e-01 -1.08893456e-01
 15 5 752103 1.5448451895709189e+06 8.3755069720864482e+05 2.7814386799286222e-14 8.0299827567816258e+05 1.6395130527223053e+06 5.3421313617681939e+04 -999 2.62979063e-01 5.442861819e-01 -1.10027106e-01
 16 5 752103 1.2972661588858881e+06 7.2997522048931429e+05 2.7267378135274479e-14 7.3400183656130207e+05 1.3613819840235962e+06 4.9406124559151976e+04 -999 2.64948291e-01 5.353238534e-01 -1.10915074e-01
 17 5 752103 1.1995259409849839e+06 6.8264487150840985e+05 2.6698609592821319e-14 7.0899963465694129e+05 1.2189239505724148e+06 4.5996728222152509e+04 -999 2.66938998e-01 5.252832751e-01 -1.11772718e-01
 18 5 752103 1.1758860249634976e+06 6.4206389794917789e+05 2.6296066256711940e-14 6.9133345873141044e+05 1.1872295102886059e+06 4.3138664327869694e+04 -999 2.68475633e-01 5.165317516e-01 -1.12361760e-01
 19 5 752103 1.3054080503662052e+06 6.8491907980187191e+05 2.5981555341527128e-14 6.9599793970619806e+05 1.3671136822055331e+06 4.0658649522127562e+04 -999 2.69735664e-01 5.086340106e-01 -1.12775152e-01
 20 5 752103 1.2943338255535869e+06 6.3208165046949929e+05 2.5762810100032587e-14 6.9979276595966436e+05 1.3423594782826181e+06 3.8468142631945826e+04 -999 2.70652338e-01 5.023154354e-01 -1.13043715e-01
 21 5 752103 1.1763656016192266e+06 6.5374698408935603e+05 2.5389789034502917e-14 6.6019172280026495e+05 1.2266444967183827e+06 3.5923965057321562e+04 -999 2.71386436e-01 4.961977698e-01 -1.13245688e-01
 22 5 752103 1.0466789440485406e+06 5.7875420630582829e+05 2.4950641445045237e-14 6.1548351244478510e+05 1.0697843993061346e+06 3.3688430098346224e+04 -999 2.72194787e-01 4.888687737e-01 -1.13463672e-01
 23 5 752103 1.0510122534741322e+06 5.9466512420677999e+05 2.4559499493284841e-14 6.0323297853998165e+05 1.0744733627125407e+06 3.1734635312114060e+04 -999 2.72902605e-01 4.818670140e-01 -1.13657110e-01
 24 5 752103 1.1962611663386377e+06 6.3418521521936532e+05 2.4278523820478046e-14 6.2263228193148971e+05 1.2575020737454717e+06 3.0042858564484686e+04 -999 2.73546816e-01 4.750439341e-01 -1.13842076e-01
 25 5 752103 1.1328493336842654e+06 5.3818956216743996e+05 2.4053141277600858e-14 5.9791553778116382e+05 1.1841744050860265e+06 2.8533273541057948e+04 -999 2.73926873e-01 4.707023333e-01 -1.13957892e-01
 26 5 752103 1.0168652237085237e+06 5.3471362669656018e+05 2.3659828400947239e-14 5.6632686444993143e+05 1.0610948021957134e+06 2.6781582423944586e+04 -999 2.74289061e-01 4.657894494e-01 -1.14067528e-01
 27 5 752103 9.0636930739676266e+05 5.1033263047881395e+05 2.3218524915294241e-14 5.2895117025236180e+05 9.2953133923985111e+05 2.5237838318553018e+04 -999 2.74692388e-01 4.601576219e-01 -1.14192622e-01
 28 5 752103 9.1136469627812726e+05 5.0942289816518378e+05 2.2848003912714754e-14 5.1510587058984581e+05 9.3209674155308411e+05 2.3867515538822929e+04 -999 2.75084216e-01 4.545957628e-01 -1.14315260e-01
 29 5 752103 1.0409277190805958e+06 5.5238296910972847e+05 2.2602607728961107e-14 5.2853158478506573e+05 1.0957119384900406e+06 2.2644057277427040e+04 -999 2.75455623e-01 4.492306610e-01 -1.14429226e-01
 30 5 752103 1.0022458688597245e+06 4.7254291761557350e+05 2.2489672372961186e-14 5.1461126095919812e+05 1.0481737671261308e+06 2.1558539427084241e+04 -999 2.75691510e-01 4.457359739e-01 -1.14499768e-01
 31 5 752103 8.8866844204451691e+05 4.7652571780483227e+05 2.2255831196031869e-14 4.8185770485734270e+05 9.3374653503538168e+05 2.0290225860237195e+04 -999 2.75922848e-01 4.417602396e-01 -1.14564206e-01
 32 5 752103 7.7469710283223260e+05 4.3621723244051024e+05 2.2014400026860621e-14 4.4514983024830831e+05 7.9812352756410814e+05 1.9159982418490490e+04 -999 2.76187360e-01 4.372184526e-01 -1.14638205e-01
 33 5 752103 7.6825477111519803e+05 4.2733096679942391e+05 2.1851089606213497e-14 4.2890664853290789e+05 7.8186258081676636e+05 1.8166674210750036e+04 -999 2.76458221e-01 4.325564458e-01 -1.14714396e-01
 34 5 752103 8.4032203874762706e+05 4.4515694765973609e+05 2.1815513037992809e-14 4.2814139534181292e+05 8.8005666366411431e+05 1.7281037235974451e+04 -999 2.76680029e-01 4.287203959e-01 -1.14777316e-01
 35 5 752103 9.6394435307267064e+05 5.4834930139796762e+05 2.1836756130133277e-14 4.4718689165055333e+05 1.0393964509247360e+06 1.6474844155482177e+04 -999 2.76889128e-01 4.250895005e-01 -1.14837216e-01
 36 5 752103 8.0003673093164584e+05 4.6663867149716779e+05 2.1652694508999141e-14 4.0554399975462264e+05 8.6489360155903129e+05 1.5537226373788917e+04 -999 2.77046197e-01 4.219746045e-01 -1.14879569e-01
 37 5 752103 6.6085121579138853e+05 3.8614019310657430e+05 2.1428989822975245e-14 3.6921704161081824e+05 6.9056415847737202e+05 1.4685630633523338e+04 -999 2.77238710e-01 4.182160284e-01 -1.14932268e-01
 38 5 752103 6.3220788363499730e+05 3.6388643101662147e+05 2.1226204425951640e-14 3.4964142024092481e+05 6.4221524756139528e+05 1.3932031931379801e+04 -999 2.77437891e-01 4.143924053e-01 -1.14987717e-01
 39 5 752103 6.9774640951269201e+05 3.7684522064868914e+05 2.1108273702323141e-14 3.4772007102333842e+05 7.2615242214092030e+05 1.3267911183966498e+04 -999 2.77616208e-01 4.110173850e-01 -1.15038078e-01
 40 5 752103 7.7093382606050314e+05 4.0649089723076910e+05 2.1061570202370712e-14 3.5556085378028086e+05 8.1770391324692196e+05 1.2667026406907344e+04 -999 2.77774538e-01 4.080509576e-01 -1.15083311e-01
 41 5 752103 6.5060279045354074e+05 3.6705013642829459e+05 2.0826575252716223e-14 3.2478591083015274e+05 6.9908497767576727e+05 1.1890568136748107e+04 -999 2.77906511e-01 4.052926649e-01 -1.15118904e-01
 42 5 752103 5.3456910038756370e+05 3.1583823161360231e+05 2.0535128358283713e-14 2.9413168679526862e+05 5.6191275780874584e+05 1.1184211775853215e+04 -999 2.78062562e-01 4.021051251e-01 -1.15161661e-01
 43 5 752103 4.9797356676406506e+05 2.8784416928886704e+05 2.0243597390785489e-14 2.7341496272137773e+05 5.0395434415632818e+05 1.0553757355168043e+04 -999 2.78239678e-01 3.985720699e-01 -1.15210874e-01
 44 5 752103 5.4232386333936884e+05 2.9315553726432734e+05 2.0044177205857906e-14 2.6853290572990803e+05 5.5985660997381317e+05 1.0006333108136898e+04 -999 2.78398661e-01 3.954733450e-01 -1.15255589e-01
 45 5 752103 5.9372886379088764e+05 3.2479604661713552e+05 1.9922451259301229e-14 2.6989843992917857e+05 6.3191175355970650e+05 9.5212084311953404e+03 -999 2.78530116e-01 3.929545770e-01 -1.15292932e-01
 46 5 752103 5.0296609645351913e+05 2.7761257406159863e+05 1.9678996389038205e-14 2.4711323974449676e+05 5.4040697337386804e+05 8.8931216028887120e+03 -999 2.78650424e-01 3.904283616e-01 -1.15325098e-01
 47 5 752103 4.1313530324475945e+05 2.4578713806876395e+05 1.9398798884168925e-14 2.2408528854963864e+05 4.3662947190171224e+05 8.3222685301031179e+03 -999 2.78790241e-01 3.875644277e-01 -1.15363012e-01
 48 5 752103 3.7578005298356741e+05 2.2404433240646997e+05 1.9121805095624206e-14 2.0636061953806505e+05 3.8206059768523875e+05 7.8163069456737840e+03 -999 2.78947249e-01 3.844288775e-01 -1.15406154e-01
 49 5 752103 3.9965776078368875e+05 2.2276922589979900e+05 1.8952410320713599e-14 1.9945863637014132e+05 4.0937525743382709e+05 7.3773483381099177e+03 -999 2.79094833e-01 3.815525620e-01 -1.15447250e-01
 50 5 752103 4.3613815994135902e+05 2.3762502656426688e+05 1.8877189294207993e-14 1.9853844593361087e+05 4.5792042939307063e+05 6.9877570151901873e+03 -999 2.79224553e-01 3.790710259e-01 -1.15483904e-01
 51 5 752103 3.7367088803710329e+05 2.0956777670525448e+05 1.8671487190977067e-14 1.8189798236867756e+05 3.9907655209372414e+05 6.4777881717195460e+03 -999 2.79335849e-01 3.767901450e-01 -1.15513794e-01
 52 5 752103 3.0450650704189495e+05 1.8409850963665798e+05 1.8400789374526235e-14 1.6347531712039839e+05 3.2363065631771000e+05 6.0207148401325703e+03 -999 2.79472233e-01 3.740509385e-01 -1.15551077e-01
 53 5 752103 2.6898237245748471e+05 1.6636276773577856e+05 1.8123506349406566e-14 1.4793223650220362e+05 2.7611467914860207e+05 5.6200913589638658e+03 -999 2.79626921e-01 3.710128156e-01 -1.15594203e-01
 54 5 752103 2.7659412035964546e+05 1.6262833925504153e+05 1.7928760683267971e-14 1.3973046381490180e+05 2.8294487018723332e+05 5.2677644956871145e+03 -999 2.79775859e-01 3.681503372e-01 -1.15636714e-01
 55 5 752103 2.9510282565387822e+05 1.6955354563227034e+05 1.7831254745499966e-14 1.3603232853139305e+05 3.0852724440297415e+05 4.9350720950029872e+03 -999 2.79910552e-01 3.656033676e-01 -1.15676293e-01
 56 5 752103 2.5428899522847286e+05 1.5161398482521166e+05 1.7640584700610809e-14 1.2506762736445572e+05 2.7068250019543746e+05 4.5302933057915216e+03 -999 2.80020435e-01 3.633750566e-01 -1.15708071e-01
 57 5 752103 2.0765330863256782e+05 1.3467729646950751e+05 1.7405547596940761e-14 1.1247674355736312e+05 2.2180176973254912e+05 4.1707131980422437e+03 -999 2.80155254e-01 3.606901441e-01 -1.15747826e-01
 58 5 752103 1.7888715165895215e+05 1.2137918362218184e+05 1.7150527097509820e-14 1.0074401714636831e+05 1.8634538271674496e+05 3.8492849001193481e+03 -999 2.80312545e-01 3.576217846e-01 -1.15795333e-01
 59 5 752103 1.7634029309115640e+05 1.1600869445067452e+05 1.6969377958056165e-14 9.3284881129114714e+04 1.8170336342428054e+05 3.5574051804658507e+03 -999 2.80467150e-01 3.546674668e-01 -1.15843621e-01
 60 5 752103 1.7986966320693924e+05 1.1499091874863137e+05 1.6878305315083423e-14 8.8655283157523605e+04 1.8717633560807767e+05 3.3267311545352736e+03 -999 2.80606691e-01 3.520405025e-01 -1.15889213e-01
 61 5 752103 1.5593272689685845e+05 1.0584763889981275e+05 1.6691732239903330e-14 8.2018318070688794e+04 1.6499254928437574e+05 3.0066791251568416e+03 -999 2.80719342e-01 3.497730259e-01 -1.15925683e-01
 62 5 752103 1.2796772806443744e+05 9.6673662166904731e+04 1.6458181450061286e-14 7.4297520425678420e+04 1.3635598600131291e+05 2.7323851592899036e+03 -999 2.80856915e-01 3.470475843e-01 -1.15970906e-01
 63 5 752103 1.0752247996624086e+05 8.8425261931727175e+04 1.6185027484370662e-14 6.6499780623519793e+04 1.1271816701836191e+05 2.4934535968347450e+03 -999 2.81021581e-01 3.438431030e-01 -1.16026221e-01
 64 5 752103 1.0073493990951336e+05 8.3298894673993127e+04 1.5962661559943236e-14 6.0788274562453655e+04 1.0428613546924865e+05 2.2923545256377361e+03 -999 2.81185524e-01 3.407062165e-01 -1.16083397e-01
 65 5 752103 9.7579688507961764e+04 7.9911529283447759e+04 1.5816850277754594e-14 5.6664069577170412e+04 1.0103315595011548e+05 2.1225113095692273e+03 -999 2.81335462e-01 3.378645647e-01 -1.16138741e-01
 66 5 752103 8.5288985673014613e+04 7.5253988147017881e+04 1.5623059305027586e-14 5.2314051002451022e+04 8.9405441822964480e+04 1.8942920995644636e+03 -999 2.81449809e-01 3.354687696e-01 -1.16178507e-01
 67 5 752103 7.0587782207286727e+04 7.0203892781192291e+04 1.5386438029149242e-14 4.7168697839671731e+04 7.4342628632361768e+04 1.7055223233116735e+03 -999 2.81590029e-01 3.325425631e-01 -1.16227536e-01
 68 5 752103 5.8309569558282114e+04 6.5087647971672210e+04 1.5090363777205576e-14 4.1596388419010131e+04 6.0611941666129504e+04 1.5483436901269793e+03 -999 2.81759128e-01 3.290225078e-01 -1.16287469e-01
 69 5 752103 5.1934025567991099e+04 6.1063810224605993e+04 1.4825738084488453e-14 3.7010553939301695e+04 5.3303236769279472e+04 1.4206297283731249e+03 -999 2.81926249e-01 3.255293138e-01 -1.16348941e-01
 70 5 752103 4.7670574056830686e+04 5.7881639623514449e+04 1.4627209684967246e-14 3.3446560282647639e+04 4.8626742918915304e+04 1.3159583274384711e+03 -999 2.82077067e-01 3.223259566e-01 -1.16408321e-01
 71 5 752103 4.1799056826561668e+04 5.4837644160484786e+04 1.4405466563458026e-14 3.0450347458685475e+04 4.2861080670756426e+04 1.1737429405761170e+03 -999 2.82178646e-01 3.194395066e-01 -1.16438305e-01
 72 5 752103 3.4938016689884331e+04 5.1387758844305790e+04 1.4138930227594214e-14 2.7005695326265599e+04 3.5781084769055611e+04 1.0671653855722122e+03 -999 2.82298322e-01 3.158328341e-01 -1.16470830e-01
 73 5 752103 2.8888699061110099e+04 4.7711950621507829e+04 1.3807050455219985e-14 2.3364091983258237e+04 2.9285628698570210e+04 9.9417533968020939e+02 -999 2.82433980e-01 3.113992010e-01 -1.16503622e-01
 74 5 752103 2.5140743674959987e+04 4.4620848031909925e+04 1.3482901480740735e-14 2.0457451237144101e+04 2.5369212975563507e+04 9.4551260099649096e+02 -999 2.82555383e-01 3.069362704e-01 -1.16529164e-01
 75 5 752103 2.2660381173712107e+04 4.2132791632184548e+04 1.3210947464246277e-14 1.8337715804281641e+04 2.2926222238312144e+04 9.1422409823310454e+02 -999 2.82654760e-01 3.027127132e-01 -1.16548065e-01
 76 5 752103 2.0014901597687171e+04 3.9723158275266374e+04 3.4976988737215897e-14 1.6593285522697308e+04 2.0551344196383521e+04 8.7698475889902022e+02 -999 2.82685000e-01 2.981513829e-01 -1.16490299e-01
 77 5 752103 1.7419928693925423e+04 3.7014647465935224e+04 6.6565010036408622e-14 1.4904865546012757e+04 1.8291752044776404e+04 9.2287275278451261e+02 -999 2.82732703e-01 2.921310799e-01 -1.16403467e-01
 78 5 752103 1.5882915963107365e+04 3.4318686663119537e+04 9.3291691006492090e-14 1.3730431180053001e+04 1.7175450552875922e+04 1.0968209605596589e+03 -999 2.82826205e-01 2.845228860e-01 -1.16292311e-01
 79 5 752103 1.5635725776313606e+04 3.2264909284937374e+04 1.0648845533872712e-13 1.3299147098396019e+04 1.7334805981064288e+04 1.4337263260554428e+03 -999 2.82989336e-01 2.766777114e-01 -1.16200467e-01
 80 5 752103 1.5904952786732778e+04 3.0766249215150692e+04 1.0774734788526324e-13 1.3198666471705701e+04 1.7939006276563556e+04 2.0047909806771620e+03 -999 2.83239762e-01 2.688387559e-01 -1.16158255e-01
 81 5 752103 1.5302498273205059e+04 2.8261305929380174e+04 9.5572716795377496e-14 1.2115294747928672e+04 1.7608131634407997e+04 3.3460526438286852e+03 -999 2.83816985e-01 2.577396792e-01 -1.16220031e-01
 82 5 752103 1.5417006626449867e+04 2.6074295153189876e+04 8.3371295930634990e-14 1.1476475455438114e+04 1.7824321880524247e+04 1.1633844968659614e+04 -999 2.84867425e-01 2.418055232e-01 -1.16571064e-01
 83 5 752103 1.6042120566435244e+04 2.5826250132730940e+04 7.5042464301576866e-14 1.1513443299970057e+04 1.8350907596805064e+04 5.5324638866173947e+04 -999 2.86202866e-01 2.234667811e-01 -1.17476020e-01
 84 5 752103 1.6605978996829650e+04 2.7587184805828732e+04 7.0125805688166803e-14 1.1779128620588517e+04 1.8743675539691787e+04 1.5286469279521945e+05 -999 2.87307863e-01 2.046036353e-01 -1.19019959e-01
 85 5 752103 1.7456652510901513e+04 4.5182203160998848e+04 6.6090747629145574e-14 1.2847819262126206e+04 2.3012950133163267e+04 2.5629349043451433e+05 -999 2.87521924e-01 1.886778107e-01 -1.20781350e-01
 86 5 752103 1.4918644809266358e+04 2.1213687692054002e+04 5.7096424188758553e-14 1.1329732138343190e+04 1.6313383604576142e+04 5.2100249650755239e+05 -999 2.86240117e-01 1.596346122e-01 -1.24510947e-01
 87 5 752103 1.3173986484275758e+04 2.4749386836337759e+04 4.7511543204383571e-14 1.2305317490543257e+04 1.4797450571491705e+04 5.2307212898513395e+05 -999 2.82149038e-01 1.365903482e-01 -1.27296305e-01
 88 5 752103 1.2827521570156570e+04 4.8498042035814156e+04 4.4832434347893156e-14 9.6999480398359665e+03 1.9752966480485557e+04 5.0453592635632289e+05 -999 2.81334446e-01 1.336448053e-01 -1.27475122e-01
 89 5 752103 1.2714862229343988e+04 5.2611441392001499e+04 4.4117366400829049e-14 9.5376013238871656e+03 2.0104605738195856e+04 4.2326800908440194e+05 -999 2.81126969e-01 1.328247887e-01 -1.27512332e-01
 90 5 752103 1.2634226098297937e+04 5.7960237448300591e+04 4.3529921764691179e-14 9.3794006967017849e+03 2.1037621364962128e+04 3.7101589619459270e+05 -999 2.80965733e-01 1.322069504e-01 -1.27535643e-01
 91 5 752103 1.2406947196828476e+04 2.2307040068651426e+04 3.8776682074022369e-14 8.7681427943666931e+03 1.3032564404888406e+04 9.3894589457256836e+04 -999 2.80538355e-01 1.299385234e-01 -1.27734207e-01
 92 5 752103 1.2298078234642484e+04 2.1738255237503814e+04 3.4857102288327115e-14 8.0702461315903220e+03 1.2520688745054194e+04 6.8453159468657541e+04 -999 2.80079149e-01 1.276728932e-01 -1.27917651e-01
 93 5 752103 1.2331584800460505e+04 2.1692675335858126e+04 3.1570527891249161e-14 7.9642579175444080e+03 1.2409211542909001e+04 6.5384343669330374e+04 -999 2.79601376e-01 1.255021693e-01 -1.28088252e-01
 94 5 752103 1.2451167352824630e+04 2.1721333093167359e+04 2.8798692011163470e-14 7.9867309445782985e+03 1.2441981250094877e+04 6.5451926124052661e+04 -999 2.79101626e-01 1.234488540e-01 -1.28243994e-01
 95 5 752103 1.2543528683648417e+04 2.2541140719827643e+04 2.6453521047394871e-14 8.0469782483363269e+03 1.2489279245608477e+04 6.5341111120323425e+04 -999 2.78575143e-01 1.215175414e-01 -1.28381724e-01
 96 5 752103 1.2073348812355538e+04 2.1201807235463384e+04 2.3604557606093564e-14 7.7601027541805352e+03 1.1971610691675109e+04 6.5117335052737631e+04 -999 2.77277805e-01 1.177629762e-01 -1.28566351e-01
 97 5 752103 1.1318034418552230e+04 2.0479661448551087e+04 2.1055056534030416e-14 7.4132589124402266e+03 1.1233663193504715e+04 6.1826524315180548e+04 -999 2.75858974e-01 1.143631736e-01 -1.28625520e-01
 98 5 752103 1.0696362184325766e+04 1.9648233023964120e+04 2.0815482954308440e-14 7.1794683762776558e+03 1.0608358186638812e+04 5.8392323912298722e+04 -999 2.74376291e-01 1.112589495e-01 -1.28549776e-01
 99 5 752103 1.0333894325053214e+04 1.9052396207723574e+04 2.0275226985270037e-14 7.1295762911876955e+03 1.0232236349420700e+04 5.3711133591219565e+04 -999 2.73294359e-01 1.091613181e-01 -1.28400180e-01
 100 5 752103 1.0130257843988918e+04 1.8225894006571212e+04 1.9676345064219137e-14 7.0479183060469149e+03 9.9400792375019992e+03 5.0513248882795415e+04 -999 2.72009770e-01 1.066779893e-01 -1.28137936e-01
 101 5 752103 9.6540778461248410e+03 1.6837871155283810e+04 5.0713153256156773e-14 6.6626480806094642e+03 9.3853413301936052e+03 4.6477741021034257e+04 -999 2.70613471e-01 1.037113596e-01 -1.27680751e-01
 102 5 752103 9.4206459945299830e+03 1.5766102638621309e+04 6.4338704892770181e-14 6.3685998032664893e+03 9.0833992113418499e+03 3.9717948133176054e+04 -999 2.69822847e-01 1.014488096e-01 -1.27239025e-01
 103 5 752103 9.2762170415537275e+03 1.4945987338286641e+04 6.4337100632977420e-14 6.1692080619561939e+03 8.8923721342419940e+03 3.4484173656783743e+04 -999 2.69517539e-01 9.977161264e-02 -1.26874271e-01
 104 5 752103 9.1926339185480047e+03 1.4265996044669944e+04 6.1804421304623604e-14 6.0823097948675768e+03 8.7774119585174158e+03 3.0555752464322413e+04 -999 2.69520397e-01 9.835640917e-02 -1.26561124e-01
 105 5 752103 9.1816607841492023e+03 1.3704719335679034e+04 5.9276526849843521e-14 6.1290009979819697e+03 8.7415553578185900e+03 2.7480785736593789e+04 -999 2.69780272e-01 9.712191536e-02 -1.26301652e-01
 106 5 752103 8.5994332536110724e+03 1.2705640346896329e+04 3.1402975794878139e-14 6.2956335673502608e+03 8.2082604609853279e+03 2.5125973513079814e+04 -999 2.70929378e-01 9.498118797e-02 -1.25953700e-01
 107 5 752103 8.4500800741899893e+03 1.2066676763958307e+04 1.8976635372046062e-14 6.7667103290260447e+03 8.0426881048374116e+03 2.1495193459436978e+04 -999 2.73018882e-01 9.316032565e-02 -1.25872115e-01
 108 5 752103 8.4979559241200423e+03 1.1860868384247575e+04 1.3576358991367337e-14 7.3070466178290962e+03 8.0512728337213230e+03 1.9611536851195637e+04 -999 2.76025104e-01 9.157148705e-02 -1.26112095e-01
 109 5 752103 8.7988340588157098e+03 1.2103992529809171e+04 1.1399170440581731e-14 7.9226314487662830e+03 8.3074683783004002e+03 1.9902730860102958e+04 -999 2.79897219e-01 9.015630773e-02 -1.26706152e-01
 110 5 752103 9.2576811071533848e+03 1.2593974838913624e+04 1.0632056840475278e-14 8.4973263872988773e+03 8.7470407662125581e+03 2.3119211159553375e+04 -999 2.84019307e-01 8.901613050e-02 -1.27552806e-01
 111 5 752103 8.6925509707481651e+03 1.2321232170616475e+04 2.0830438619019751e-13 8.6125410342049508e+03 8.3956690142173520e+03 4.2621020495094046e+04 -999 2.90824128e-01 8.757216781e-02 -1.29246326e-01
 112 5 752103 8.6779717029877138e+03 1.2713805991659132e+04 2.4136012048050300e-13 8.5473566316108027e+03 8.5411795253812816e+03 7.4110334656538675e+04 -999 2.98594307e-01 8.628384344e-02 -1.31447784e-01
 113 5 752103 9.2095309678359990e+03 1.5288111531373041e+04 2.2209435032222502e-13 8.5859768879379644e+03 1.0552307121221394e+04 1.1196909042027187e+05 -999 3.07269390e-01 8.509415479e-02 -1.34112183e-01
 114 5 752103 9.5304085205492011e+03 1.9632810971320410e+04 2.0061108441838903e-13 8.8495997640534551e+03 1.6530704985412343e+04 1.6690957662512953e+05 -999 3.12109814e-01 8.453460306e-02 -1.35682760e-01
 115 5 752103 9.5139909391974033e+03 2.2816956214533548e+04 1.9383385285513262e-13 9.2668787192848031e+03 2.3019256510313353e+04 2.4841659014582908e+05 -999 3.14730349e-01 8.425816424e-02 -1.36561111e-01
 116 5 752103 9.1335426876380498e+03 1.3836503481504533e+04 2.2719687264655619e-13 8.4247639251962719e+03 8.9387036494415588e+03 2.8207628929180297e+05 -999 3.21250423e-01 8.358601223e-02 -1.38737836e-01
 117 5 752103 8.9910843400171725e+03 1.2850632247371053e+04 2.7833137757100949e-13 8.1510301251964629e+03 8.9463204020179310e+03 3.4361429393742461e+05 -999 3.27932753e-01 8.299905416e-02 -1.41056062e-01
 118 5 752103 8.8708517878646962e+03 2.2113729214273459e+04 2.5683351256112784e-13 9.8495679546619231e+03 1.4351975226652488e+04 3.8349530820768030e+05 -999 3.34587614e-01 8.247794533e-02 -1.43462884e-01
 119 5 752103 8.8010783481390445e+03 2.2195710742064817e+04 2.5333641555291519e-13 8.3988031007676582e+03 1.6450197107920416e+04 4.0904980050344567e+05 -999 3.35281670e-01 8.242458631e-02 -1.43725382e-01
 120 5 752103 8.7632636977753264e+03 2.3123743869029880e+04 2.5119508055320658e-13 8.1473634902518625e+03 1.7060805707630636e+04 4.5670984119836392e+05 -999 3.35724290e-01 8.239052961e-02 -1.43893558e-01
 121 5 752103 8.4119847638611100e+03 1.1225809715513196e+04 4.2071814177048504e-13 7.6956640982005674e+03 8.3003522916618986e+03 6.5288700733320671e+05 -999 3.43607803e-01 8.178618694e-02 -1.46926321e-01
 122 5 752103 8.0486967485226969e+03 1.0442215054540806e+04 6.0164865047100837e-13 7.7703328674421346e+03 7.9542796481725527e+03 5.8865820330707892e+05 -999 3.51037166e-01 8.116088327e-02 -1.49932425e-01
 123 5 752103 7.8978931720785877e+03 2.2959746507059121e+04 6.6848269705125120e-13 8.4568660335577424e+03 1.0034246585679370e+04 7.1831504986125790e+05 -999 3.56543769e-01 8.061256797e-02 -1.52248304e-01
 124 5 752103 7.8660469932975166e+03 2.7449782449930844e+04 6.3998286609668157e-13 7.9577158973952901e+03 1.0098884493300182e+04 5.5313261187406990e+05 -999 3.57243704e-01 8.053237375e-02 -1.52547343e-01
 125 5 752103 7.8454721182779040e+03 2.9758115652318022e+04 6.1437931172610575e-13 7.8724083587380746e+03 9.8699796800035274e+03 5.1696270980071340e+05 -999 3.57687026e-01 8.048038097e-02 -1.52736966e-01
 126 5 752103 7.7963328069774552e+03 9.3072654020664395e+03 4.7316457031454204e-13 7.9069765763507730e+03 7.6676679805944050e+03 4.0026098043469241e+05 -999 3.63979800e-01 7.973750163e-02 -1.55434064e-01
 127 5 752103 7.7397391760550208e+03 9.0002855370555226e+03 3.9628397167853903e-13 7.6993006108519476e+03 7.6900436360391504e+03 4.3962637306881446e+05 -999 3.69934512e-01 7.893472819e-02 -1.58010856e-01
 128 5 752103 7.7123324887014678e+03 2.3318598027469656e+04 4.0726509283799050e-13 8.3494127992245740e+03 1.1546851795404675e+04 4.2306606476570992e+05 -999 3.75526393e-01 7.808013251e-02 -1.60433725e-01
 129 5 752103 7.6640675884440288e+03 2.7244331404029013e+04 3.8790540802476456e-13 7.5780868786041719e+03 1.0997418983832014e+04 3.6454408882333443e+05 -999 3.76234986e-01 7.796036875e-02 -1.60740800e-01
 130 5 752103 7.6361826338635028e+03 2.4215282618659927e+04 3.8449077608445615e-13 7.5216749891345444e+03 1.0127797773721810e+04 3.1403863483793481e+05 -999 3.76685083e-01 7.788331450e-02 -1.60935772e-01
 131 5 752103 7.4222256254920612e+03 7.8193200844085932e+03 4.0654062882918113e-13 7.3076841273672626e+03 7.3343360718489930e+03 2.9219610249594180e+05 -999 3.83134629e-01 7.679608872e-02 -1.63743254e-01
 132 5 752103 7.1044525206756316e+03 7.1781801158403296e+03 4.4273666955010694e-13 6.8579006894281920e+03 7.0151290205601426e+03 2.1054131779454817e+05 -999 3.89393075e-01 7.571673571e-02 -1.66482908e-01
 133 5 752103 6.8634743999955163e+03 1.2162033527381727e+04 4.0342929409430825e-13 7.9720149590955680e+03 8.4700235782124546e+03 2.1720388222200141e+05 -999 3.95529919e-01 7.464837477e-02 -1.69184782e-01
 134 5 752103 6.7949552614055556e+03 1.7163042222045420e+04 3.9613005946675897e-13 6.8873598836507836e+03 1.0588587545205182e+04 1.4992185579138511e+05 -999 3.96570000e-01 7.447424272e-02 -1.69643374e-01
 135 5 752103 6.7583369741895385e+03 1.6476558595666083e+04 3.9126003420525224e-13 6.5349704861440823e+03 9.7065767474952936e+03 1.2110693269555533e+05 -999 3.97105958e-01 7.438556710e-02 -1.69879216e-01
 136 5 752103 6.5223791637603244e+03 5.9363948155991293e+03 3.9579560126901797e-13 6.2567629279280409e+03 6.4212575762297320e+03 1.2117127212921798e+05 -999 4.05030780e-01 7.315003127e-02 -1.73377074e-01
 137 5 752103 6.1945581193362495e+03 5.5295507860532907e+03 4.7519053829107772e-13 5.8980950931011412e+03 6.1124204049869486e+03 1.3484221379345440e+05 -999 4.13531679e-01 7.202847011e-02 -1.77068260e-01
 138 5 752103 5.8798954763083129e+03 8.9626224330347759e+03 5.5215523479106964e-13 5.8536701124041192e+03 6.6869815097684623e+03 1.2285801047113685e+05 -999 4.22767480e-01 7.100772743e-02 -1.80958133e-01
 139 5 752103 5.8341295168754104e+03 1.1665129479439276e+04 5.5809608348016645e-13 5.6485172478075765e+03 8.4787192606785866e+03 9.3935892969406050e+04 -999 4.24109552e-01 7.088266429e-02 -1.81500978e-01
 140 5 752103 5.8127595112153940e+03 1.1252111937799669e+04 5.6182955811767455e-13 5.6092871705137895e+03 8.6623536981001143e+03 7.1314977430979023e+04 -999 4.24802065e-01 7.081881613e-02 -1.81779088e-01
 141 5 752103 5.7523190138095933e+03 5.1435535960538464e+03 8.6803261720877631e-13 5.2187043303538612e+03 5.7452816661396000e+03 7.2551157518833337e+04 -999 4.37809678e-01 6.971506596e-02 -1.86936973e-01