TITLE = "005.01 ALPHA 2.50 GRIDLEVEL 4"

VARIABLES = "ITERATION"  "GRID_LEVEL"  "GRID_SIZE"  "CONTINUITY"  "MOMENTUMX"  "MOMENTUMY"  "MOMENTUMZ"  "ENERGY"  "TURB1"  "TURB2"  "CL_TOT"  "CD_TOT"  "CM_TOT"

DATASETAUXDATA ParticipantID   = "005"
DATASETAUXDATA SubmissionDate  = "10-31-2024"
DATASETAUXDATA Name            = "Jeffrey A. Housman"
DATASETAUXDATA Email           = "jeffrey.a.housman@nasa.gov"
DATASETAUXDATA Institution     = "NASA Ames Research Center"
DATASETAUXDATA SolverName      = "LAVA Curvilinear"
DATASETAUXDATA BasicAlgorithm  = "RANS"
DATASETAUXDATA TurbulenceModel = "SA-neg"
DATASETAUXDATA GridId          = "Multiblock"
DATASETAUXDATA Discretization  = "Finite difference"
DATASETAUXDATA Order           = "2"
DATASETAUXDATA DistanceCalc    = "Exact"
DATASETAUXDATA Notes           = " "

ZONE T = "005.01 - Alpha 2.50 - Grid Level 4"
AUXDATA Tstatic         = "271.0"
AUXDATA Deltat          = "-999"
AUXDATA GridFileName    = "ONERA-OAT15A_230mmChord_780mmSpan_upZ_2024_06_25-Structured_23mm_Level-4.x"
AUXDATA Misc            = " "
 0 4 430284 3.6728301951634156e+05 1.0462732735473100e+06 6.4511385161479125e-14 3.3808580962146621e+05 3.8068815194576979e+05 1.7121653263763087e+06 -999 1.06507821e-02 7.527906210e-01 -4.88356009e-03
 1 4 430284 5.3613499672424758e+05 7.9929596990667738e+05 5.5793627024217952e-14 2.6702763005535165e+05 5.2032370277744922e+05 1.1123510860672349e+06 -999 3.85402203e-02 7.025793109e-01 -1.79871319e-02
 2 4 430284 6.5834403798048769e+05 6.9199323950800777e+05 4.9244842126817070e-14 2.9631470734006580e+05 6.3070231566213211e+05 7.2575188837858650e+05 -999 7.09680678e-02 6.756951338e-01 -3.33486446e-02
 3 4 430284 7.7232507673749991e+05 6.2381860683813831e+05 4.4153614439621359e-14 3.5232661771834630e+05 7.3911441188492475e+05 4.7385109655206662e+05 -999 9.98492882e-02 6.602127099e-01 -4.68524790e-02
 4 4 430284 8.7529522106106300e+05 5.7389172707704373e+05 4.0134419280994856e-14 4.2253555017194303e+05 8.4584224262378656e+05 3.0402392721674248e+05 -999 1.26495648e-01 6.516017356e-01 -5.80785788e-02
 5 4 430284 9.7887492902089213e+05 5.7752633022008836e+05 3.6939546775599104e-14 4.9674115168260195e+05 9.6528386999458715e+05 1.9484648977557899e+05 -999 1.46318435e-01 6.455912092e-01 -6.63180824e-02
 6 4 430284 8.9700404354135436e+05 6.1958078411928879e+05 3.4484962893089315e-14 5.2592798971667257e+05 8.8719970494133316e+05 9.9045740567678091e+04 -999 1.59717318e-01 6.338003219e-01 -7.25875435e-02
 7 4 430284 9.2021086302408413e+05 6.3557676046620274e+05 3.2256252774176681e-14 5.4873498580862745e+05 9.0620959199708526e+05 7.9213981175114823e+04 -999 1.70934825e-01 6.188901425e-01 -7.82615950e-02
 8 4 430284 9.8127099773282022e+05 6.2948976026864548e+05 3.0612497951632104e-14 5.6092755087844213e+05 9.8760168795578880e+05 6.8002675069533245e+04 -999 1.80001304e-01 6.022610804e-01 -8.25188794e-02
 9 4 430284 1.1840597871649347e+06 6.8573161415726191e+05 2.9193032741444284e-14 6.1904051566195732e+05 1.2314380588010447e+06 6.0637959439366772e+04 -999 1.89352637e-01 5.818679631e-01 -8.64223061e-02
 10 4 430284 1.1099328547820249e+06 5.8055889223985560e+05 2.8395799591153190e-14 5.8876058339221333e+05 1.1488913258130809e+06 5.4649694461230181e+04 -999 1.94305118e-01 5.699232345e-01 -8.84161492e-02
 11 4 430284 1.0194895125057129e+06 5.6684162513699592e+05 2.7438792400479003e-14 5.7529359855282516e+05 1.0391149492219152e+06 4.9440550642895825e+04 -999 1.99952287e-01 5.553107107e-01 -9.07845529e-02
 12 4 430284 9.4827757481722452e+05 5.7179143005544937e+05 2.6675120917050248e-14 5.5269737894455029e+05 9.5999152431394020e+05 4.5200876994569946e+04 -999 2.04344293e-01 5.427685666e-01 -9.25988023e-02
 13 4 430284 1.0497673780883770e+06 5.8224962784923369e+05 2.6112292452663129e-14 5.7450499748142913e+05 1.0805250977750630e+06 4.1874561229115818e+04 -999 2.08585625e-01 5.291524391e-01 -9.43885792e-02
 14 4 430284 9.7982666103953763e+05 5.1247366041821137e+05 2.5687198655491169e-14 5.3904402565628279e+05 1.0044465944492770e+06 3.9003067649612654e+04 -999 2.10762511e-01 5.211357690e-01 -9.53707034e-02
 15 4 430284 1.1539790927450908e+06 6.5690778656628472e+05 2.5282802447845759e-14 5.8555202884657565e+05 1.2302970159951835e+06 3.6556713983533926e+04 -999 2.13184906e-01 5.116080204e-01 -9.65590118e-02
 16 4 430284 9.7366333189020597e+05 5.8018934321973647e+05 2.4838628187035199e-14 5.2703065886772086e+05 1.0323724436743134e+06 3.3732172520675726e+04 -999 2.14715821e-01 5.047050215e-01 -9.73574576e-02
 17 4 430284 8.6485277908313321e+05 4.8150469152135082e+05 2.4325973622936444e-14 4.9571871498722577e+05 8.7885628917948157e+05 3.1310617029219109e+04 -999 2.16555454e-01 4.957459388e-01 -9.82966252e-02
 18 4 430284 8.2264288312383159e+05 4.7141008827861055e+05 2.3904628580319227e-14 4.7452654161294206e+05 8.3165109567917639e+05 2.9210560131949929e+04 -999 2.17877515e-01 4.884948425e-01 -9.89219687e-02
 19 4 430284 9.5741396876915987e+05 5.1194268872921163e+05 2.3545119014187010e-14 4.9012556383010076e+05 1.0061051224069759e+06 2.7423760408379141e+04 -999 2.19126872e-01 4.809417120e-01 -9.94505808e-02
 20 4 430284 8.7795362469399010e+05 4.1678932559731352e+05 2.3349474684419773e-14 4.6424730586008087e+05 9.1029636429553502e+05 2.5862583677465038e+04 -999 2.19867348e-01 4.759914664e-01 -9.97228386e-02
 21 4 430284 8.0101601554069063e+05 4.2553103700037458e+05 2.3024164745029891e-14 4.4356677211703110e+05 8.2868381799649564e+05 2.4066480165221925e+04 -999 2.20577873e-01 4.703794680e-01 -9.99669429e-02
 22 4 430284 7.1928809120433265e+05 4.1085160947091080e+05 2.2668215896151958e-14 4.1355004301535228e+05 7.3612523817116499e+05 2.2504800350416805e+04 -999 2.21289667e-01 4.642191592e-01 -1.00204437e-01
 23 4 430284 7.4114069624424016e+05 4.1137486340417637e+05 2.2357326197992394e-14 4.0656054590968357e+05 7.5916872156283457e+05 2.1145799972626508e+04 -999 2.21980963e-01 4.575112363e-01 -1.00436091e-01
 24 4 430284 7.4469278571221302e+05 3.7219699441546592e+05 2.2196840324914153e-14 3.9830397408537578e+05 7.6190544931872899e+05 1.9947956169575660e+04 -999 2.22454978e-01 4.523487398e-01 -1.00602222e-01
 25 4 430284 8.0577403067226545e+05 4.1102565153835993e+05 2.2065241929628283e-14 3.9689272872021800e+05 8.5141539436413080e+05 1.8877032820356464e+04 -999 2.22839290e-01 4.478636771e-01 -1.00743978e-01
 26 4 430284 6.8009513122225995e+05 3.6510070422049449e+05 2.1827787453052203e-14 3.6605405586240534e+05 7.1596184882236947e+05 1.7646176252314352e+04 -999 2.23168501e-01 4.432460233e-01 -1.00868399e-01
 27 4 430284 6.0002439206596394e+05 3.4662291675885487e+05 2.1595262016513552e-14 3.4244242415978032e+05 6.1554493816182262e+05 1.6563051040440256e+04 -999 2.23508059e-01 4.383043755e-01 -1.01000238e-01
 28 4 430284 6.1092934241387015e+05 3.3669748404054425e+05 2.1407032552111850e-14 3.3206618113970378e+05 6.2283423330330348e+05 1.5605023361660948e+04 -999 2.23868459e-01 4.329139576e-01 -1.01143047e-01
 29 4 430284 6.2560205337780365e+05 3.1617682027027442e+05 2.1267170228797347e-14 3.2569902463055216e+05 6.4341452580070728e+05 1.4775322428402211e+04 -999 2.24136412e-01 4.288268734e-01 -1.01249828e-01
 30 4 430284 6.8657648064361454e+05 3.6179882258967787e+05 2.1145787406864729e-14 3.2761982531463279e+05 7.2942799980184471e+05 1.4034852515933580e+04 -999 2.24370177e-01 4.252030391e-01 -1.01341651e-01
 31 4 430284 5.7624910635284998e+05 3.1593180119768210e+05 2.0917497217689218e-14 2.9993679844722722e+05 6.1233014754615189e+05 1.3146535357695559e+04 -999 2.24565246e-01 4.216242218e-01 -1.01414678e-01
 32 4 430284 4.9140929656282614e+05 2.8778856587685266e+05 2.0660244877949596e-14 2.7570208683127875e+05 5.0810487155606429e+05 1.2340760230697460e+04 -999 2.24788029e-01 4.175146549e-01 -1.01497368e-01
 33 4 430284 4.7770616603903630e+05 2.7472336791712057e+05 2.0430851940252747e-14 2.6105237059324447e+05 4.8543339121951023e+05 1.1626119730091435e+04 -999 2.25015158e-01 4.132940633e-01 -1.01581521e-01
 34 4 430284 5.3619778838349890e+05 2.8447529128466325e+05 2.0267451952682068e-14 2.6172161009615386e+05 5.5738396751468501e+05 1.0994153515262688e+04 -999 2.25228080e-01 4.092939146e-01 -1.01660629e-01
 35 4 430284 5.3024885382900597e+05 2.6084763515552747e+05 2.0177597149051383e-14 2.5597785415004543e+05 5.5443067088112643e+05 1.0444506927940991e+04 -999 2.25373532e-01 4.065251708e-01 -1.01714915e-01
 36 4 430284 4.5941734457327041e+05 2.5285579539606767e+05 1.9965327447330418e-14 2.3626964525891299e+05 4.8481002796078322e+05 9.8021768122526137e+03 -999 2.25515222e-01 4.033974432e-01 -1.01766484e-01
 37 4 430284 3.8885750271522271e+05 2.3083680768768207e+05 1.9723907886509889e-14 2.1475374501082706e+05 4.0399512122571905e+05 9.2196604942987669e+03 -999 2.25673486e-01 3.999594430e-01 -1.01824675e-01
 38 4 430284 3.7127995247580914e+05 2.1520436234925353e+05 1.9485013425697323e-14 2.0064827707034239e+05 3.7575392327583022e+05 8.6834549652835758e+03 -999 2.25849598e-01 3.961870238e-01 -1.01889993e-01
 39 4 430284 4.0178046716753719e+05 2.1470824533187668e+05 1.9321301168402327e-14 1.9737805965684913e+05 4.1440868934468651e+05 8.2097523564728217e+03 -999 2.26002404e-01 3.929540163e-01 -1.01947072e-01
 40 4 430284 4.3103001590645639e+05 2.3498411331877543e+05 1.9213653832164222e-14 1.9682214997570374e+05 4.5727514669236616e+05 7.7928071157371924e+03 -999 2.26124285e-01 3.903962205e-01 -1.01992853e-01
 41 4 430284 3.6475145548063726e+05 2.0498135217939314e+05 1.8999998143480528e-14 1.8010807346634797e+05 3.8963932043410308e+05 7.3035053392814234e+03 -999 2.26234241e-01 3.877841754e-01 -1.02033064e-01
 42 4 430284 3.0078513502552995e+05 1.8542089333855556e+05 1.8740649275119170e-14 1.6307211984386470e+05 3.1546024975917232e+05 6.8634254278161434e+03 -999 2.26363556e-01 3.847854592e-01 -1.02080765e-01
 43 4 430284 2.7632144620859140e+05 1.6951748101118670e+05 1.8467711879070391e-14 1.5028307599639543e+05 2.7958121099391446e+05 6.4647713191828116e+03 -999 2.26505533e-01 3.815683611e-01 -1.02133543e-01
 44 4 430284 2.9860515867550089e+05 1.7104301787448375e+05 1.8244447033510954e-14 1.4604472660889593e+05 3.0631336937052431e+05 6.1039963326358875e+03 -999 2.26637608e-01 3.786341560e-01 -1.02182943e-01
 45 4 430284 3.2711303744884807e+05 1.7915871809295559e+05 1.8077890820630664e-14 1.4626368785633607e+05 3.4280765959758864e+05 5.7816944567426308e+03 -999 2.26752803e-01 3.761092700e-01 -1.02226229e-01
 46 4 430284 2.7736019158864702e+05 1.6290963127811439e+05 1.7871288778905158e-14 1.3381515083742249e+05 2.9653188849098230e+05 5.3814797010104030e+03 -999 2.26846422e-01 3.738193711e-01 -1.02260540e-01
 47 4 430284 2.2294284614730190e+05 1.4481553191522422e+05 1.7613151828420883e-14 1.1947216071352777e+05 2.3641588341591871e+05 5.0233178405671651e+03 -999 2.26960226e-01 3.711182045e-01 -1.02302356e-01
 48 4 430284 1.9623062990665567e+05 1.3092577882479865e+05 1.7332880647587071e-14 1.0778573093003330e+05 1.9963021942197520e+05 4.7036524388903354e+03 -999 2.27088631e-01 3.681423338e-01 -1.02349886e-01
 49 4 430284 2.0578093782276282e+05 1.2905445788783061e+05 1.7101733052813002e-14 1.0229331252936985e+05 2.1062917688583455e+05 4.4181615012801867e+03 -999 2.27209329e-01 3.654078952e-01 -1.02394827e-01
 50 4 430284 2.2442242939350399e+05 1.3821111084553896e+05 1.6922452621491735e-14 1.0048823274819882e+05 2.3647763906338229e+05 4.1642437500477772e+03 -999 2.27314261e-01 3.630716047e-01 -1.02434105e-01
 51 4 430284 1.9005472224653600e+05 1.2099704143709033e+05 1.6729463826948363e-14 9.1690657617045683e+04 2.0401693344072389e+05 3.8370116745639152e+03 -999 2.27403762e-01 3.608859546e-01 -1.02467094e-01
 52 4 430284 1.5238806566503493e+05 1.0670075488961980e+05 1.6481847716552405e-14 8.1955657927197477e+04 1.6357417940025750e+05 3.5300495988497933e+03 -999 2.27512086e-01 3.582937439e-01 -1.02507439e-01
 53 4 430284 1.3022023691271814e+05 9.6807965673710685e+04 1.6206767599281871e-14 7.3235276806740920e+04 1.3525552817803450e+05 3.2682054148192647e+03 -999 2.27636863e-01 3.553746189e-01 -1.02554337e-01
 54 4 430284 1.3019600006584493e+05 9.3376316761031499e+04 1.5960546840408404e-14 6.8070487387380141e+04 1.3397916786991179e+05 3.0357202066090754e+03 -999 2.27759350e-01 3.525741333e-01 -1.02600834e-01
 55 4 430284 1.3611596305431807e+05 9.4759362958952173e+04 1.5760750659591901e-14 6.5262473409148683e+04 1.4267683951455311e+05 2.8362051013863706e+03 -999 2.27869554e-01 3.501004518e-01 -1.02643263e-01
 56 4 430284 1.1688186638160319e+05 8.6646034850329641e+04 1.5570512451946405e-14 6.0183154266508420e+04 1.2489096417401668e+05 2.5620660898666729e+03 -999 2.27958356e-01 3.479095767e-01 -1.02678106e-01
 57 4 430284 9.4678266243803140e+04 7.8924380385053664e+04 1.5342289717093551e-14 5.4336296717770347e+04 1.0204347256312195e+05 2.3341969662525289e+03 -999 2.28066762e-01 3.452770450e-01 -1.02721231e-01
 58 4 430284 7.8498011606483502e+04 7.2244334300831571e+04 1.5045019744541867e-14 4.8518916660694689e+04 8.3008711883627664e+04 2.1200885995681947e+03 -999 2.28196909e-01 3.421781539e-01 -1.02773686e-01
 59 4 430284 7.3566081322437050e+04 6.8450056555827003e+04 1.4778298154494964e-14 4.4439723716101340e+04 7.6517156495790798e+04 1.9450461778592144e+03 -999 2.28327140e-01 3.391424729e-01 -1.02827166e-01
 60 4 430284 7.1863189239891493e+04 6.6235996883278087e+04 1.4556835200715978e-14 4.1643895090998376e+04 7.4840009058229902e+04 1.7953125504246759e+03 -999 2.28446831e-01 3.363950075e-01 -1.02877846e-01
 61 4 430284 6.2619551804107738e+04 6.2606761543043831e+04 1.4349918628647988e-14 3.8649125515510357e+04 6.6032022338438270e+04 1.6065495011788362e+03 -999 2.28538528e-01 3.339792418e-01 -1.02917921e-01
 62 4 430284 5.1755246018020851e+04 5.8709900791046442e+04 1.4083751791071088e-14 3.5128714070822803e+04 5.4767395856849143e+04 1.4337126704981786e+03 -999 2.28650499e-01 3.310314495e-01 -1.02967274e-01
 63 4 430284 4.2865568428587161e+04 5.4781843185714330e+04 1.3737059900919964e-14 3.1377763408846469e+04 4.4621368175024072e+04 1.2940343383328889e+03 -999 2.28784802e-01 3.275003501e-01 -1.03026821e-01
 64 4 430284 3.8379291566845459e+04 5.1687401783201669e+04 1.3416674662207012e-14 2.8323944321115971e+04 3.9315328114521311e+04 1.1801576582020325e+03 -999 2.28918229e-01 3.239787581e-01 -1.03086859e-01
 65 4 430284 3.5514221022569138e+04 4.9270662647303798e+04 1.3139423717198338e-14 2.5968720603591057e+04 3.6107494352953145e+04 1.0870319360190774e+03 -999 2.29038917e-01 3.207408689e-01 -1.03143174e-01
 66 4 430284 3.1502822932030180e+04 4.6946039341792646e+04 1.2889328999194030e-14 2.4015976032384580e+04 3.2090331109971368e+04 9.6917805727645248e+02 -999 2.29111321e-01 3.177759089e-01 -1.03174535e-01
 67 4 430284 2.6942340240576446e+04 4.4293736560520483e+04 1.2578945376416248e-14 2.1741861678583849e+04 2.7316883839383365e+04 8.7649080172691049e+02 -999 2.29193096e-01 3.140715742e-01 -1.03208007e-01
 68 4 430284 2.2987696434019632e+04 4.1428196215399905e+04 1.2202471027790050e-14 1.9290054809459911e+04 2.3073048270543743e+04 8.0924920861648479e+02 -999 2.29282005e-01 3.095252975e-01 -1.03240097e-01
 69 4 430284 2.0538118457934790e+04 3.8964487725944993e+04 1.1836674352930378e-14 1.7261691661251691e+04 2.0605282244546583e+04 7.6027052534890220e+02 -999 2.29359529e-01 3.049515071e-01 -1.03261966e-01
 70 4 430284 1.8919921705848934e+04 3.6943350127759273e+04 1.1518118614913152e-14 1.5728326268149502e+04 1.9150644147828338e+04 7.2319842803778499e+02 -999 2.29423640e-01 3.006213151e-01 -1.03274175e-01
 71 4 430284 1.6970757237127178e+04 3.4908642025126173e+04 1.1201621988554253e-14 1.4264326748598653e+04 1.7524891600079016e+04 6.7300826374041105e+02 -999 2.29448306e-01 2.958666698e-01 -1.03219863e-01
 72 4 430284 1.5144813560785162e+04 3.2619841071403880e+04 1.0821360701355427e-14 1.2848073678570618e+04 1.6095048270144180e+04 6.5855062656536973e+02 -999 2.29499910e-01 2.896164523e-01 -1.03135450e-01
 73 4 430284 1.4141462105920988e+04 3.0330664363951146e+04 1.0408506506425714e-14 1.1881789153688798e+04 1.5520846201662729e+04 6.8368536038919672e+02 -999 2.29615450e-01 2.818612130e-01 -1.03025148e-01
 74 4 430284 1.4091609188814902e+04 2.8520869841059895e+04 1.0086418383653801e-14 1.1596582087628387e+04 1.5815465669766178e+04 7.3728794436994644e+02 -999 2.29822902e-01 2.739154041e-01 -1.02929362e-01
 75 4 430284 1.4462766281104557e+04 2.7126789736650113e+04 9.8258475666928590e-15 1.1682778341030647e+04 1.6431476558998067e+04 8.3607720256024754e+02 -999 2.30139387e-01 2.660267987e-01 -1.02877946e-01
 76 4 430284 1.4124502386702245e+04 2.5109500052973624e+04 9.5057489746737678e-15 1.0914936368041364e+04 1.6321825857205324e+04 1.0435986301630608e+03 -999 2.30870805e-01 2.550782306e-01 -1.02931885e-01
 77 4 430284 1.4263545103408584e+04 2.3260997559822597e+04 9.2679788827394021e-15 1.0346616781691409e+04 1.6531811308632041e+04 1.6624477648370364e+03 -999 2.32279404e-01 2.396563441e-01 -1.03260572e-01
 78 4 430284 1.4560320966922600e+04 2.2424052685988598e+04 9.1649692928446991e-15 1.0098750435219454e+04 1.6706556879949800e+04 3.4315216939903912e+03 -999 2.34321927e-01 2.223985243e-01 -1.04118375e-01
 79 4 430284 1.4884832113846182e+04 2.2688433409353307e+04 9.0626537503897209e-15 1.0134794848960119e+04 1.6732741847304624e+04 9.8754580586839984e+03 -999 2.36565737e-01 2.053260415e-01 -1.05607683e-01
 80 4 430284 1.5336573792610090e+04 2.3529788883887250e+04 8.8341245796348939e-15 1.0294648208116269e+04 1.6762101054053939e+04 2.3025977384926307e+04 -999 2.38336228e-01 1.906554317e-01 -1.07444626e-01
 81 4 430284 1.3411714486981791e+04 1.9287420212393044e+04 8.2973686784543900e-15 9.3944187396484067e+03 1.4611355013507989e+04 1.3684823611647642e+05 -999 2.40876327e-01 1.665601843e-01 -1.11432879e-01
 82 4 430284 1.2012252289942420e+04 1.7595431217532419e+04 7.5674745521818850e-15 9.0914798735887052e+03 1.2997667730035386e+04 1.8027112473400056e+05 -999 2.41858465e-01 1.438442758e-01 -1.15859429e-01
 83 4 430284 1.1247904104019610e+04 3.1611944586529866e+04 6.8675803113823464e-15 9.2031019071573410e+03 1.4385744993406373e+04 1.4398498443278534e+05 -999 2.41235446e-01 1.367147376e-01 -1.17129353e-01
 84 4 430284 1.1082293617751871e+04 3.1317302817179745e+04 6.6655332866714017e-15 8.4951714286908355e+03 1.3611286034803556e+04 1.1225513766443693e+05 -999 2.40979173e-01 1.353790104e-01 -1.17314779e-01
 85 4 430284 1.0980987774931096e+04 2.8343706947019858e+04 6.5869322805976121e-15 8.4150788756293496e+03 1.2297075808818672e+04 7.7512152822388525e+04 -999 2.40807730e-01 1.345426769e-01 -1.17425103e-01
 86 4 430284 1.0712376103510242e+04 1.5579460298802171e+04 6.0115209498055893e-15 8.1725122446023706e+03 1.1216232515132413e+04 4.3744961796745505e+04 -999 2.40760065e-01 1.324341300e-01 -1.17764926e-01
 87 4 430284 1.0518547646911107e+04 1.5560558935424291e+04 5.6536395901697536e-15 7.9772078372402630e+03 1.0918947883485343e+04 4.5187235316375707e+04 -999 2.40677880e-01 1.303410654e-01 -1.18094815e-01
 88 4 430284 1.0380105567896146e+04 1.5682759447917728e+04 5.3648578458737595e-15 7.7506286762915552e+03 1.0681184302774373e+04 4.6605875984088751e+04 -999 2.40572075e-01 1.283145487e-01 -1.18416163e-01
 89 4 430284 1.0326356671132446e+04 1.5883791960201730e+04 5.1157424143517774e-15 7.5675115441665839e+03 1.0521943264507287e+04 4.7872471468456628e+04 -999 2.40441435e-01 1.263832085e-01 -1.18727383e-01
 90 4 430284 1.0355935450934030e+04 1.6092802673388929e+04 4.9417205262291621e-15 7.3382045944197407e+03 1.0447685932753875e+04 4.8962804633133470e+04 -999 2.40281914e-01 1.245628913e-01 -1.19025490e-01
 91 4 430284 1.0439377169573057e+04 1.6486204047958854e+04 4.9289768013938285e-15 7.1300749981311637e+03 1.0397019525649619e+04 4.9624504826946089e+04 -999 2.39969402e-01 1.221007924e-01 -1.19427282e-01
 92 4 430284 1.0396327175241449e+04 1.6744328781165645e+04 4.9239946625172422e-15 6.9092981885704530e+03 1.0268567350272404e+04 5.0313704093695836e+04 -999 2.39584790e-01 1.198225423e-01 -1.19795840e-01
 93 4 430284 1.0146562707623369e+04 1.6864649668987757e+04 4.9036025071878298e-15 6.7447521709344674e+03 9.9776831752369417e+03 5.0768958124965706e+04 -999 2.39123160e-01 1.176991869e-01 -1.20125284e-01
 94 4 430284 9.7484659167551454e+03 1.6886262715664612e+04 4.8559018878513262e-15 6.7140785506052262e+03 9.5771609044381694e+03 5.1229812422543066e+04 -999 2.38579768e-01 1.157043640e-01 -1.20411134e-01
 95 4 430284 9.3325997698539923e+03 1.6866593314306141e+04 4.8532464296628704e-15 6.8265204879910934e+03 9.1824917537292586e+03 5.1158849602911127e+04 -999 2.37952772e-01 1.138228066e-01 -1.20649387e-01
 96 4 430284 8.8647309275315911e+03 1.6719623158575407e+04 4.7344763766051468e-15 7.0508343904938665e+03 8.7508388594148437e+03 5.0274838786380511e+04 -999 2.37027754e-01 1.116238535e-01 -1.20862817e-01
 97 4 430284 8.5233744390098909e+03 1.6563955131079125e+04 4.6855860269849078e-15 7.2301783371953015e+03 8.4332387068440894e+03 4.8505435164089955e+04 -999 2.35986394e-01 1.095824866e-01 -1.20992913e-01
 98 4 430284 8.2773845337388811e+03 1.6378688397996486e+04 4.6735385031820883e-15 7.2203309960293154e+03 8.1834953131369430e+03 4.6262457229065003e+04 -999 2.34839553e-01 1.076935592e-01 -1.21035472e-01
 99 4 430284 8.1083236001937421e+03 1.6163271131718557e+04 4.6978293285803290e-15 7.0344149150192379e+03 7.9905918644687208e+03 4.3488339632705778e+04 -999 2.33606083e-01 1.059439479e-01 -1.20991179e-01
 100 4 430284 7.9855962412495837e+03 1.5876245126918826e+04 4.7091064224244831e-15 6.7287409349392492e+03 7.8274740821598116e+03 4.0550845315392711e+04 -999 2.32315382e-01 1.043155341e-01 -1.20867467e-01
 101 4 430284 7.8445648530713870e+03 1.5338227308256046e+04 5.0685077117682061e-15 6.3403818838175057e+03 7.6380098959102888e+03 3.6625271098858640e+04 -999 2.30682818e-01 1.024240259e-01 -1.20616967e-01
 102 4 430284 7.7773055025327913e+03 1.4717835391755372e+04 5.4953457481083688e-15 5.9140386317737793e+03 7.5197506863959270e+03 3.2926989952994460e+04 -999 2.29141610e-01 1.006687625e-01 -1.20312153e-01
 103 4 430284 7.7435378730279990e+03 1.4076159947897311e+04 5.7869100613435642e-15 5.6045832108975692e+03 7.4361191755803338e+03 2.9573824839707690e+04 -999 2.27786406e-01 9.905530757e-02 -1.19989539e-01
 104 4 430284 7.7278860662190627e+03 1.3453786855372606e+04 6.0353845891334432e-15 5.4654520811655075e+03 7.3764027652657769e+03 2.6617733395502746e+04 -999 2.26687133e-01 9.758761928e-02 -1.19679351e-01
 105 4 430284 7.7096988117743222e+03 1.2862963064608433e+04 6.3914100758293936e-15 5.5011814797624747e+03 7.3282040500952480e+03 2.4087497408545420e+04 -999 2.25888556e-01 9.626620186e-02 -1.19403698e-01
 106 4 430284 7.5221600622536198e+03 1.2143574719545075e+04 1.4739594795397479e-14 5.6868016396324019e+03 7.1654444235332521e+03 2.1537413007758150e+04 -999 2.25374542e-01 9.481090018e-02 -1.19137999e-01
 107 4 430284 7.3685771550998370e+03 1.1472953048702027e+04 8.0588277581696964e-15 5.9350552305166411e+03 7.0101394324070652e+03 1.9212778770043376e+04 -999 2.25375150e-01 9.352228591e-02 -1.18966372e-01
 108 4 430284 7.2598055716698018e+03 1.0955962121207001e+04 2.5150740447869372e-14 6.2987594892409206e+03 6.9030139092295258e+03 1.7398900885208976e+04 -999 2.25875799e-01 9.234911529e-02 -1.18898176e-01
 109 4 430284 7.2170486076491916e+03 1.0617709722759759e+04 4.6454703614978606e-14 6.7064878357615135e+03 6.8478494389829693e+03 1.5952412060921215e+04 -999 2.26868593e-01 9.124801746e-02 -1.18946721e-01
 110 4 430284 7.2957276989618849e+03 1.0510574450703625e+04 6.5428748398075877e-14 7.1525635313191160e+03 6.9008291818009329e+03 1.5123641726202133e+04 -999 2.28357802e-01 9.019248316e-02 -1.19131757e-01
 111 4 430284 7.1259889769540896e+03 1.0445612653217549e+04 1.5185259454144699e-13 7.5474916736111481e+03 6.7458657693259020e+03 1.5227696897321895e+04 -999 2.30982889e-01 8.894434096e-02 -1.19612307e-01
 112 4 430284 7.2109002060010780e+03 1.0683267444342730e+04 1.7878767367129639e-13 7.8652678243654209e+03 6.8636193215660733e+03 1.6673061628858515e+04 -999 2.34370927e-01 8.778542417e-02 -1.20369964e-01
 113 4 430284 7.3401895284006832e+03 1.1108735816834851e+04 1.5667751437023103e-13 8.1585442985496657e+03 7.0448666643266006e+03 1.9952190054903120e+04 -999 2.38468631e-01 8.669767505e-02 -1.21422195e-01
 114 4 430284 7.5147888805742950e+03 1.1653014456728844e+04 1.2067252775907098e-13 8.2203823058046983e+03 7.2831945532797308e+03 2.6165072599793359e+04 -999 2.43200472e-01 8.565161023e-02 -1.22773667e-01
 115 4 430284 7.8865282932956761e+03 1.2592948764037203e+04 9.0537384546933638e-14 8.1867720605070699e+03 7.9880604188418420e+03 3.7237710461637798e+04 -999 2.48477495e-01 8.463751982e-02 -1.24419966e-01
 116 4 430284 7.6882447952177918e+03 1.1924697752751088e+04 5.4700813125388812e-14 8.0690803685865831e+03 7.5778256291084299e+03 5.6851070255136852e+04 -999 2.53629789e-01 8.377191259e-02 -1.26142143e-01
 117 4 430284 8.0290452942938555e+03 1.2852760110139410e+04 4.9530480784013279e-14 8.1529335126877650e+03 8.0680565610635476e+03 8.4971574551676284e+04 -999 2.59067953e-01 8.297192616e-02 -1.28080853e-01
 118 4 430284 8.6432283347327739e+03 2.2516383872549501e+04 5.0238719250051558e-14 8.3908239003162726e+03 1.0606685645841766e+04 1.4464739248859140e+05 -999 2.64691856e-01 8.218061240e-02 -1.30205975e-01
 119 4 430284 8.4950147017529307e+03 2.5353112273828094e+04 5.0132659074653313e-14 8.3837349467888725e+03 1.2425980214189300e+04 1.9438650078568113e+05 -999 2.65900269e-01 8.201042908e-02 -1.30686992e-01
 120 4 430284 8.4541674480788515e+03 2.7217119729503469e+04 5.0152339426959802e-14 8.4177136636914911e+03 1.4200987987878356e+04 1.6065523849620135e+05 -999 2.66673736e-01 8.190181394e-02 -1.30997952e-01
 121 4 430284 8.4162134794027534e+03 1.3340946197536519e+04 3.7326232211603355e-14 8.1207473585645594e+03 8.3464885952186578e+03 9.8876770548982822e+04 -999 2.70164170e-01 8.140879742e-02 -1.32384481e-01
 122 4 430284 8.4258986267402088e+03 1.2593667259843161e+04 3.3867287112850782e-14 7.9588191226696617e+03 8.3684281141388001e+03 8.2261055347481219e+04 -999 2.73709215e-01 8.091293614e-02 -1.33834168e-01
 123 4 430284 8.4053637268445782e+03 1.2692114068356062e+04 3.4304859975736543e-14 8.4718789833743922e+03 1.0421671810297128e+04 7.7384388100192067e+04 -999 2.77258564e-01 8.044991079e-02 -1.35325628e-01
 124 4 430284 8.3685795379625106e+03 1.4365622820849459e+04 3.5098990293417529e-14 8.4648734865600018e+03 1.7698714792937273e+04 7.4660193194562846e+04 -999 2.78179934e-01 8.033575256e-02 -1.35722364e-01
 125 4 430284 8.3406299336546217e+03 1.5332006648185268e+04 3.5470905862540565e-14 8.1758066216181905e+03 2.0090026448093919e+04 7.2104368958358114e+04 -999 2.78648913e-01 8.027844454e-02 -1.35925465e-01
 126 4 430284 8.2042080320507757e+03 1.1457300766928192e+04 7.2580127563532154e-14 7.9891500745500434e+03 8.1619789739563475e+03 7.5099909635022937e+04 -999 2.83053339e-01 7.973009029e-02 -1.37848488e-01
 127 4 430284 8.0179680754837946e+03 1.0898735285358971e+04 9.5382641087504091e-14 7.8985689190304129e+03 7.9636031738106512e+03 7.7013132822743966e+04 -999 2.87326638e-01 7.920048502e-02 -1.39763349e-01
 128 4 430284 7.8978729049723379e+03 1.1589844004047160e+04 9.8546017772501619e-14 8.0391687420041662e+03 7.9957862279508035e+03 7.8650789183069501e+04 -999 2.91387477e-01 7.865996778e-02 -1.41627496e-01
 129 4 430284 7.8485585041130589e+03 1.6619145760189112e+04 9.6990039169707859e-14 8.0850293765119823e+03 9.4366094103024443e+03 7.5883270146811687e+04 -999 2.92637449e-01 7.847434959e-02 -1.42215081e-01
 130 4 430284 7.8272463320912075e+03 1.7586203755994844e+04 9.6339499350445782e-14 8.0156055506688499e+03 9.7177077117293175e+03 7.2245598837527170e+04 -999 2.93137387e-01 7.839589389e-02 -1.42451891e-01
 131 4 430284 7.6965944056769640e+03 9.9263951797995906e+03 1.1291114192481801e-13 7.9336531149813927e+03 7.6224658765043760e+03 7.3644391406540584e+04 -999 2.97634321e-01 7.766446085e-02 -1.44605073e-01
 132 4 430284 7.5925614368014049e+03 9.5597801432845827e+03 1.4103295688149345e-13 7.9054621100786271e+03 7.5006270458469789e+03 7.3449352309544149e+04 -999 3.01759355e-01 7.691355444e-02 -1.46647112e-01
 133 4 430284 7.6292153630312750e+03 9.8359789881744873e+03 1.5171624107711551e-13 7.9034013072530979e+03 7.5648295214818345e+03 7.1492616731787595e+04 -999 3.05511465e-01 7.613503066e-02 -1.48568255e-01
 134 4 430284 7.6604134738737193e+03 2.0820305115423173e+04 1.5589022309788433e-13 7.9424848063782529e+03 8.7021594642014425e+03 7.0036021251360653e+04 -999 3.07696874e-01 7.562520492e-02 -1.49725805e-01
 135 4 430284 7.6553946800303393e+03 2.1212178618571317e+04 1.5665159122226689e-13 7.9693120863656113e+03 8.8027935852019746e+03 6.5343909775719221e+04 -999 3.08044310e-01 7.553995139e-02 -1.49913744e-01
 136 4 430284 7.6877167181315408e+03 8.7437230432832785e+03 1.7015266779495598e-13 7.9999958823214247e+03 7.6195361119511754e+03 6.4305544830757914e+04 -999 3.10948306e-01 7.483051834e-02 -1.51493190e-01
 137 4 430284 7.6073530292577343e+03 8.4452910194703763e+03 2.0160160060695386e-13 7.8760160634821068e+03 7.5372700583101505e+03 6.3761822946715190e+04 -999 3.13661220e-01 7.412904846e-02 -1.53017969e-01
 138 4 430284 7.4994198081188370e+03 8.3036163737614897e+03 1.9597826675356521e-13 7.7634364392215994e+03 7.4245172330809264e+03 6.3866897130636404e+04 -999 3.16195639e-01 7.344753488e-02 -1.54488043e-01
 139 4 430284 7.4274515988873272e+03 1.2876832341232286e+04 1.8160983410811904e-13 7.8373618972437989e+03 7.4570382375504241e+03 6.3758113661412011e+04 -999 3.18583628e-01 7.278335346e-02 -1.55912271e-01
 140 4 430284 7.3833491139189209e+03 1.8242468509584756e+04 1.7912738282148602e-13 7.6637698030484280e+03 7.6284064506386385e+03 6.2467834198278761e+04 -999 3.19177924e-01 7.261601257e-02 -1.56274476e-01
 141 4 430284 7.2113560665059222e+03 7.5653668903397765e+03 1.8128722796480542e-13 7.3792790569050248e+03 7.1471726645702274e+03 6.2838597686379602e+04 -999 3.22208268e-01 7.176633265e-02 -1.58150594e-01