TITLE = "005.01 ALPHA 3.40 GRIDLEVEL 1"

VARIABLES = "ITERATION"  "GRID_LEVEL"  "GRID_SIZE"  "CONTINUITY"  "MOMENTUMX"  "MOMENTUMY"  "MOMENTUMZ"  "ENERGY"  "TURB1"  "TURB2"  "CL_TOT"  "CD_TOT"  "CM_TOT"

DATASETAUXDATA ParticipantID   = "005"
DATASETAUXDATA SubmissionDate  = "10-31-2024"
DATASETAUXDATA Name            = "Jeffrey A. Housman"
DATASETAUXDATA Email           = "jeffrey.a.housman@nasa.gov"
DATASETAUXDATA Institution     = "NASA Ames Research Center"
DATASETAUXDATA SolverName      = "LAVA Curvilinear"
DATASETAUXDATA BasicAlgorithm  = "RANS"
DATASETAUXDATA TurbulenceModel = "SA-neg"
DATASETAUXDATA GridId          = "Multiblock"
DATASETAUXDATA Discretization  = "Finite difference"
DATASETAUXDATA Order           = "2"
DATASETAUXDATA DistanceCalc    = "Exact"
DATASETAUXDATA Notes           = " "

ZONE T = "005.01 - Alpha 3.40 - Grid Level 1"
AUXDATA Tstatic         = "271.0"
AUXDATA Deltat          = "-999"
AUXDATA GridFileName    = "ONERA-OAT15A_230mmChord_780mmSpan_upZ_2024_06_25-Structured_23mm_Level-1.x"
AUXDATA Misc            = " "
 0 1 52831 9.6995572959457670e+04 1.6493647124960009e+05 2.0240672186817967e-14 8.2458534376823896e+04 9.7802813406773435e+04 1.8705111674197990e+05 -999 5.87517067e-03 3.095022207e-01 -3.93056651e-03
 1 1 52831 1.2682672573197952e+05 1.3604446949089912e+05 1.8621866460451152e-14 7.0253030975500224e+04 1.2306981306749665e+05 1.1958533053736352e+05 -999 4.93112588e-02 3.189918001e-01 -2.17475590e-02
 2 1 52831 1.4953684160106722e+05 1.2289505326100708e+05 1.7443336406046851e-14 7.6210900698832731e+04 1.4313995868320356e+05 7.6575276900750963e+04 -999 9.54241223e-02 3.359276764e-01 -4.01015770e-02
 3 1 52831 1.7369049601430036e+05 1.1279256572297923e+05 1.6537401753868893e-14 8.5154591568868593e+04 1.6570378055453787e+05 4.8321136540128144e+04 -999 1.34019943e-01 3.549231527e-01 -5.64568700e-02
 4 1 52831 1.9862796650351476e+05 1.0311456558405483e+05 1.5872716829795374e-14 9.5413999720536187e+04 1.9110238240554938e+05 2.2532116471006117e+04 -999 1.66002191e-01 3.750692022e-01 -6.87261355e-02
 5 1 52831 2.1919097683750122e+05 1.0068909798694398e+05 1.5449493552204467e-14 1.0767895058135105e+05 2.1385894547015824e+05 1.7898601568570946e+04 -999 1.92651149e-01 3.953274210e-01 -7.83542699e-02
 6 1 52831 1.9603850813878034e+05 1.2265137388781933e+05 1.5130326133575879e-14 1.1222373408341774e+05 1.9256016152452014e+05 1.4816135551452395e+04 -999 2.11783108e-01 4.088622311e-01 -8.56943490e-02
 7 1 52831 1.8266949685748713e+05 1.3513121037720764e+05 1.4878185894841358e-14 1.1112591327911911e+05 1.7707383048507629e+05 1.2483023098823702e+04 -999 2.26443743e-01 4.174159119e-01 -9.17067776e-02
 8 1 52831 1.9886597703994784e+05 1.3205237167250784e+05 1.4719847894805349e-14 1.0627858227310512e+05 1.9965184162564698e+05 1.0653935587563092e+04 -999 2.37365892e-01 4.187442526e-01 -9.63233777e-02
 9 1 52831 1.9369672812946979e+05 1.1565614966320341e+05 1.4601409850623029e-14 1.0093213373337375e+05 1.9565438986358439e+05 9.3285923420351937e+03 -999 2.46971107e-01 4.159722348e-01 -1.00077014e-01
 10 1 52831 2.0893801846089010e+05 1.1789698173873370e+05 1.4529410452063862e-14 9.9035632226797446e+04 2.1585980604164168e+05 8.2978187729399942e+03 -999 2.55132077e-01 4.131417174e-01 -1.03058706e-01
 11 1 52831 1.6719040570616120e+05 1.0286138133013627e+05 1.4426652616041841e-14 8.7966741368908275e+04 1.7314585871243064e+05 7.1749681628860162e+03 -999 2.63588628e-01 4.100309548e-01 -1.06099702e-01
 12 1 52831 1.4936306923507719e+05 9.2011523805356366e+04 1.4348067010343492e-14 8.1565781330957485e+04 1.5024497657161512e+05 6.3075863251462715e+03 -999 2.71423741e-01 4.074344438e-01 -1.08813051e-01
 13 1 52831 1.3405829261441473e+05 8.2234712970021530e+04 1.4275999529422645e-14 7.4432051937702199e+04 1.3382214798242360e+05 5.6585119250209000e+03 -999 2.77298345e-01 4.054266145e-01 -1.10851380e-01
 14 1 52831 1.5008008538250296e+05 8.3591434103744134e+04 1.4230785236842310e-14 7.3200888453154679e+04 1.5461167636884804e+05 5.1393357657793176e+03 -999 2.81859595e-01 4.035753783e-01 -1.12507958e-01
 15 1 52831 1.2991088832474030e+05 6.8913572041576350e+04 1.4204213691775638e-14 6.6161673936811188e+04 1.3323010275250836e+05 4.6944654580014985e+03 -999 2.84519125e-01 4.020767716e-01 -1.13557210e-01
 16 1 52831 1.1667276657739219e+05 6.8579872381078370e+04 1.4141069673298538e-14 6.1893695902115243e+04 1.1966420676258625e+05 4.1695094557289049e+03 -999 2.86872099e-01 4.001950520e-01 -1.14557829e-01
 17 1 52831 1.0135353639100482e+05 6.6372531967387215e+04 1.4061856321805015e-14 5.5911969963665870e+04 1.0395393845237655e+05 3.7404883125790930e+03 -999 2.89224376e-01 3.979381237e-01 -1.15593536e-01
 18 1 52831 9.6932615563675179e+04 6.0708249286301703e+04 1.3984040879715706e-14 5.0960676203378025e+04 9.8307184233403939e+04 3.3820935518588526e+03 -999 2.91772422e-01 3.950572635e-01 -1.16735856e-01
 19 1 52831 8.8014292768999803e+04 5.4534232013226923e+04 1.3934386029375208e-14 4.6736925705154928e+04 8.9397999875548616e+04 3.0858856892531844e+03 -999 2.93495138e-01 3.927539717e-01 -1.17498214e-01
 20 1 52831 9.8386172957370130e+04 5.8205698644660071e+04 1.3882264292882910e-14 4.6164897823044579e+04 1.0264201731943256e+05 2.8348533342028745e+03 -999 2.95125674e-01 3.903269976e-01 -1.18195229e-01
 21 1 52831 7.9639347163298284e+04 5.3673964427212166e+04 1.3774550643930631e-14 4.0846923134647026e+04 8.4665739864856470e+04 2.5326276449123557e+03 -999 2.96440541e-01 3.877836000e-01 -1.18722610e-01
 22 1 52831 6.3725355907358069e+04 4.6664190603040690e+04 1.3642012406330610e-14 3.5746714085854896e+04 6.6620401192001314e+04 2.2824869059187354e+03 -999 2.97789216e-01 3.848744522e-01 -1.19241604e-01
 23 1 52831 5.6867852800923582e+04 4.2752716509496960e+04 1.3479513832983561e-14 3.1687348754001985e+04 5.7616443396067632e+04 2.0695432308459613e+03 -999 2.99214305e-01 3.813821860e-01 -1.19768929e-01
 24 1 52831 5.4911265517744301e+04 4.0334668721292779e+04 1.3348069918950055e-14 2.9174191032334031e+04 5.6561574895094716e+04 1.8905067957495446e+03 -999 3.00162908e-01 3.786598137e-01 -1.20111660e-01
 25 1 52831 5.9849891305518060e+04 4.1791144582497007e+04 1.3222369763085054e-14 2.8259761724806744e+04 6.3075502099291363e+04 1.7366135687764181e+03 -999 3.00971784e-01 3.760607474e-01 -1.20405575e-01
 26 1 52831 4.8612648599996188e+04 3.8196671145758824e+04 1.3074009204463754e-14 2.5045092113832954e+04 5.2468209919649911e+04 1.5279746549033887e+03 -999 3.01567848e-01 3.734703901e-01 -1.20616706e-01
 27 1 52831 3.6822216550058816e+04 3.3924418320269026e+04 1.2882499713838509e-14 2.1512469802724849e+04 3.9533952963173200e+04 1.3550894913506745e+03 -999 3.02244892e-01 3.703204564e-01 -1.20856337e-01
 28 1 52831 2.9566947386270109e+04 3.0730875842725352e+04 1.2664646656964423e-14 1.8505210842706259e+04 3.0352160191625666e+04 1.2127617130923870e+03 -999 3.02928226e-01 3.668650342e-01 -1.21098116e-01
 29 1 52831 2.9159763729146096e+04 2.9503092980439029e+04 1.2466629787798176e-14 1.6837256261592138e+04 3.0147032969356394e+04 1.0952117266877481e+03 -999 3.03492369e-01 3.637647996e-01 -1.21300147e-01
 30 1 52831 3.0530936481477525e+04 2.9141691216440162e+04 1.2279475004418583e-14 1.5904131026223016e+04 3.2232849567795649e+04 9.9741671669325103e+02 -999 3.03983871e-01 3.608672546e-01 -1.21480464e-01
 31 1 52831 2.5522497223765818e+04 2.7200602886261884e+04 1.2093422492584510e-14 1.4505890578567629e+04 2.7616402096252536e+04 8.5926499472239368e+02 -999 3.04307821e-01 3.582435953e-01 -1.21593140e-01
 32 1 52831 1.9726610668598416e+04 2.5103647864681276e+04 1.1853944600492926e-14 1.2900086131842183e+04 2.1498023537600773e+04 7.4664915899304788e+02 -999 3.04692680e-01 3.550093157e-01 -1.21726672e-01
 33 1 52831 1.5252781793885764e+04 2.3184248479212769e+04 1.1570413588253930e-14 1.1342937067682571e+04 1.6029683693206136e+04 6.5524100670965549e+02 -999 3.05123260e-01 3.511946684e-01 -1.21876307e-01
 34 1 52831 1.3690038166867691e+04 2.2018444069881149e+04 1.1299114611736292e-14 1.0268330423822170e+04 1.4055552135025810e+04 5.8360845113487210e+02 -999 3.05522027e-01 3.473985627e-01 -1.22017532e-01
 35 1 52831 1.3188251723496478e+04 2.1202276218633080e+04 1.1050759505876222e-14 9.5562674408199782e+03 1.3717771887798724e+04 5.2609174730969733e+02 -999 3.05855530e-01 3.439573171e-01 -1.22140314e-01
 36 1 52831 1.1530018652589080e+04 2.0124709803111164e+04 1.0803131774569950e-14 8.8709663713063001e+03 1.2061526516912181e+04 4.4814932341111211e+02 -999 3.06059535e-01 3.405586598e-01 -1.22192090e-01
 37 1 52831 9.7167721113605185e+03 1.8965446062979816e+04 1.0490201640236199e-14 8.0850216715103570e+03 1.0135362861624368e+04 3.8682720386452240e+02 -999 3.06298362e-01 3.362658335e-01 -1.22245192e-01
 38 1 52831 8.2789553958109773e+03 1.7782365917865423e+04 1.0093943988631646e-14 7.2669859870330192e+03 8.5361564830027273e+03 3.3988202079579219e+02 -999 3.06563243e-01 3.309950309e-01 -1.22293108e-01
 39 1 52831 7.5293499407626314e+03 1.6787469882535981e+04 9.7098691468519467e-15 6.5922553969481551e+03 7.7760698268562483e+03 3.0436393288046719e+02 -999 3.06804577e-01 3.255109545e-01 -1.22324427e-01
 40 1 52831 7.1279119332485780e+03 1.5975890670064504e+04 9.3555765207017252e-15 6.0729887673970452e+03 7.4777618229240070e+03 2.7697595200232496e+02 -999 3.07006157e-01 3.202378964e-01 -1.22339986e-01
 41 1 52831 6.4859460437852340e+03 1.5047666867041869e+04 8.9346501507148911e-15 5.5633895692122060e+03 6.9497338477861758e+03 2.4721686486426790e+02 -999 3.07123136e-01 3.137133364e-01 -1.22235528e-01
 42 1 52831 5.9613337757713189e+03 1.4007677111301135e+04 8.4251942479309480e-15 5.0611148318199939e+03 6.5725914724446820e+03 2.2923605286997281e+02 -999 3.07294111e-01 3.051777483e-01 -1.22081990e-01
 43 1 52831 5.7246397672716421e+03 1.3015113092240041e+04 7.8454744625749052e-15 4.6992970123162677e+03 6.4918029855135437e+03 2.2037559861638664e+02 -999 3.07549089e-01 2.952734594e-01 -1.21902756e-01
 44 1 52831 5.6775683227289883e+03 1.2269241702023584e+04 7.3888356988568715e-15 4.4520259688185324e+03 6.5638547296211054e+03 2.1369975271960053e+02 -999 3.07959422e-01 2.861474346e-01 -1.21745786e-01
 45 1 52831 5.7452783316348041e+03 1.1607870657583133e+04 6.9805557102141875e-15 4.3737516536684152e+03 6.7116780184506606e+03 2.1039551646295808e+02 -999 3.08534468e-01 2.765267759e-01 -1.21643271e-01
 46 1 52831 5.7410407905914526e+03 1.0802417728227008e+04 6.4865408693693236e-15 4.3332042421426795e+03 6.7217771245698859e+03 2.0855541997967163e+02 -999 3.09491617e-01 2.636185626e-01 -1.21625780e-01
 47 1 52831 5.8060169465845065e+03 9.8324508333398462e+03 5.9347983770933193e-15 4.4094113289737397e+03 6.7316060026832920e+03 2.2244243261098404e+02 -999 3.11190889e-01 2.448885567e-01 -1.21943151e-01
 48 1 52831 5.8507056952670309e+03 9.0014883348278581e+03 5.4026256175768275e-15 4.4803351893055415e+03 6.6645354151407546e+03 2.4672440402470016e+02 -999 3.13213321e-01 2.235593778e-01 -1.22988183e-01
 49 1 52831 5.7420040547012295e+03 8.5098302442979693e+03 5.0028860641417756e-15 4.4011413990002247e+03 6.4321301053887764e+03 2.7850929605872597e+02 -999 3.14548257e-01 2.028427473e-01 -1.24858780e-01
 50 1 52831 5.4538288914676787e+03 8.4505906996693193e+03 4.6369160651575824e-15 4.2286568251771878e+03 6.0187626610211346e+03 3.8449558407153279e+02 -999 3.14365542e-01 1.835677850e-01 -1.27315764e-01
 51 1 52831 4.6948835903271602e+03 7.6051011996726647e+03 4.1265419571076492e-15 3.9569554656495338e+03 4.9976455914356902e+03 8.7157979004656124e+02 -999 3.10274545e-01 1.580256562e-01 -1.30739039e-01
 52 1 52831 4.1273599406198127e+03 7.1024277537164289e+03 3.6787114522684886e-15 3.7399180460985954e+03 4.2617059643633829e+03 1.8420445015105895e+03 -999 3.01501583e-01 1.383299153e-01 -1.32226106e-01
 53 1 52831 3.7226306105315998e+03 7.2374913677787144e+03 3.2655031727584290e-15 3.2469490210550002e+03 3.7427024896991197e+03 3.5509781689586584e+03 -999 2.90341572e-01 1.233687514e-01 -1.31124668e-01
 54 1 52831 3.5939587659832096e+03 7.5646911233056499e+03 3.0075946642141498e-15 2.7039855182564115e+03 3.4699313601106678e+03 4.4807839582883917e+03 -999 2.85195155e-01 1.172540982e-01 -1.29577617e-01
 55 1 52831 3.5736632041534554e+03 7.7908877061036383e+03 2.8737710320505784e-15 2.4647658275302101e+03 3.3431337639218218e+03 4.8119146638718767e+03 -999 2.82925944e-01 1.140223527e-01 -1.28577512e-01
 56 1 52831 2.8136231130442166e+03 6.7954564094363786e+03 2.7187299405607621e-15 2.1249991702970433e+03 2.7253442412563022e+03 4.6131904478405913e+03 -999 2.79143702e-01 1.063876215e-01 -1.25775148e-01
 57 1 52831 2.2847050754877241e+03 5.6695551523674212e+03 2.7006976234167742e-15 1.9674115352476679e+03 2.2666166253061474e+03 3.7020022860107510e+03 -999 2.81923952e-01 9.906909923e-02 -1.23585701e-01
 58 1 52831 2.1065660044964939e+03 4.5282879813998288e+03 2.7106836169134561e-15 2.2286275506189404e+03 2.0310454845917627e+03 2.7636920018401556e+03 -999 2.93272154e-01 9.389109346e-02 -1.24126467e-01
 59 1 52831 2.0935719260073784e+03 3.9674466346476929e+03 2.6338693193199503e-15 2.1878170957955167e+03 2.0380364976273618e+03 2.8543318353434365e+03 -999 3.05777727e-01 9.072018436e-02 -1.26415183e-01
 60 1 52831 2.2547429013845508e+03 3.7505718871773338e+03 2.5598679141662658e-15 1.9883106865053794e+03 2.1650112816024057e+03 3.4230737460981154e+03 -999 3.16410190e-01 8.846004094e-02 -1.28955695e-01
 61 1 52831 1.9465807145237720e+03 2.9773168989023216e+03 2.5844062038154015e-15 1.5438858605684361e+03 1.9094223450874476e+03 4.0339475576955106e+03 -999 3.44274315e-01 8.420447476e-02 -1.37580246e-01
 62 1 52831 1.8208705526029305e+03 2.4809836183918806e+03 2.6204112731450635e-15 1.3268059343634802e+03 1.8110676357188142e+03 5.7008211925141995e+03 -999 3.78398122e-01 7.966805810e-02 -1.49637026e-01
 63 1 52831 1.6586131134712357e+03 2.2747225516858089e+03 2.5901454608028882e-15 1.1942008919443999e+03 1.6031995584328808e+03 7.6744698950031179e+03 -999 4.10080164e-01 7.622499210e-02 -1.61556038e-01
 64 1 52831 1.5546215309109084e+03 2.3726372649091722e+03 2.5656424756992123e-15 1.0916688190284367e+03 1.5001602569300519e+03 9.5891064068394226e+03 -999 4.40069084e-01 7.333696397e-02 -1.72069284e-01
 65 1 52831 1.5328030260619832e+03 2.7102407825102991e+03 2.6342568192087490e-15 9.7314267033625185e+02 1.4636398204034986e+03 1.0744760348292770e+04 -999 4.72904445e-01 7.048920857e-02 -1.81920762e-01
 66 1 52831 1.1293553226544182e+03 1.6783415021870219e+03 2.5018576711497648e-15 6.3760687635395368e+02 1.0783863666551140e+03 1.0895188124961427e+04 -999 5.27635663e-01 6.754939114e-02 -1.93987137e-01
 67 1 52831 1.0214136272891636e+03 1.2196234531462753e+03 2.5585239190963643e-15 4.6993896481146135e+02 9.8538042326699758e+02 9.5483793298847195e+03 -999 5.86193245e-01 6.606309749e-02 -2.02871920e-01
 68 1 52831 1.0309177907906451e+03 1.0957131645450593e+03 2.7046846962013539e-15 3.8712878978342263e+02 1.0914541479406512e+03 7.8948523893785386e+03 -999 6.46121929e-01 6.622277002e-02 -2.07925428e-01
 69 1 52831 1.2076726504417500e+03 1.4268217730941421e+03 2.9789050532497115e-15 3.3419975888533668e+02 1.5123191787147891e+03 6.5483200015294015e+03 -999 6.98375114e-01 6.790502362e-02 -2.08994373e-01
 70 1 52831 1.2630374771437730e+03 1.7608859102118977e+03 3.2731183718897409e-15 3.2037395379332111e+02 1.8340852922146576e+03 5.7161589187313757e+03 -999 7.26286318e-01 6.939373224e-02 -2.07914859e-01
 71 1 52831 7.3417781187124524e+02 7.6042384193340013e+02 4.0416319345977683e-15 2.1388930260469175e+02 7.1310251133963698e+02 4.2665035659040468e+03 -999 7.98819625e-01 7.386321639e-02 -2.04031207e-01
 72 1 52831 5.6557413642805284e+02 6.4616525547772937e+02 4.3922534911074255e-15 1.5923897630559961e+02 5.3814796571782995e+02 3.5859322467874799e+03 -999 8.57188801e-01 7.606736423e-02 -1.97886245e-01
 73 1 52831 4.8194756167339034e+02 5.5035776904874672e+02 4.2186214343185311e-15 1.3562381041616052e+02 4.4667828140006083e+02 3.2583493807534624e+03 -999 9.03450593e-01 7.556897561e-02 -1.92625310e-01
 74 1 52831 4.2558369946275121e+02 5.0286864522912913e+02 3.9317245939737960e-15 1.2762967509236854e+02 3.8977493735012825e+02 3.1322241192046135e+03 -999 9.41221511e-01 7.263192560e-02 -1.89392794e-01
 75 1 52831 3.8992019829657221e+02 5.6650714803320909e+02 4.9635929545096497e-15 1.2500995277226920e+02 3.8111102077633944e+02 3.3612917256878791e+03 -999 9.71434079e-01 6.894934563e-02 -1.87879366e-01
 76 1 52831 3.6653944917111625e+02 1.0202882344479906e+03 1.0764899955339846e-14 1.4283914654814441e+02 4.7849318217843893e+02 1.3270773665520155e+04 -999 9.91115912e-01 6.746718672e-02 -1.86872478e-01
 77 1 52831 3.5853025040024227e+02 9.7497234904701759e+02 8.4036883570726991e-15 1.4381102372770786e+02 3.8089844171444616e+02 8.8060370035996631e+04 -999 1.01012517e+00 6.606452889e-02 -1.85393414e-01
 78 1 52831 3.6192942600775041e+02 7.4239681421525529e+02 6.4113061122856641e-15 1.2927344652225827e+02 3.3706278583239725e+02 4.9029897021391858e+04 -999 1.03095080e+00 6.444036201e-02 -1.83356698e-01
 79 1 52831 3.6497288129174160e+02 8.1454893118654650e+02 4.9846920865596843e-15 1.1825285312492568e+02 3.3673865294297912e+02 3.3254801412803310e+04 -999 1.04301273e+00 6.340410383e-02 -1.81936756e-01
 80 1 52831 3.6432499021740830e+02 9.4871240630089881e+02 4.6523751572060173e-15 1.1586674394509602e+02 3.3354074026345450e+02 3.3843672500114124e+04 -999 1.04721354e+00 6.304126749e-02 -1.81435850e-01
 81 1 52831 3.4903516041192700e+02 9.8691035882195445e+02 4.4093928676490367e-15 1.2908765156762590e+02 3.1934951762496468e+02 3.6784204105313438e+04 -999 1.05545690e+00 6.252229785e-02 -1.81271896e-01
 82 1 52831 3.4366520876846550e+02 9.0397545478562733e+02 4.1383698156715512e-15 1.6554644774040634e+02 3.1162181463381080e+02 2.8843490755698695e+04 -999 1.06386893e+00 6.176474117e-02 -1.80682136e-01
 83 1 52831 3.5629702040350872e+02 8.4533658223962686e+02 3.9142250165522351e-15 2.0841250360190409e+02 3.2286473028065063e+02 1.3869104281098284e+04 -999 1.07246923e+00 6.099017937e-02 -1.79933501e-01
 84 1 52831 3.9353919907863536e+02 7.8468060924377244e+02 3.6878439443811509e-15 2.4356260165968877e+02 3.5867532716415610e+02 6.6508856314426366e+03 -999 1.08119109e+00 6.024643680e-02 -1.78847867e-01
 85 1 52831 4.1883022061058699e+02 7.7036813416692610e+02 3.5861656368998441e-15 2.5017312793372494e+02 3.8308733307883728e+02 4.9446745233925603e+03 -999 1.08629124e+00 5.985177546e-02 -1.78098946e-01
 86 1 52831 3.9046271421193700e+02 6.6682746663306250e+02 3.4039498393839103e-15 2.1809836539646204e+02 3.5058482388745824e+02 5.2047007217237451e+03 -999 1.09049549e+00 5.968228033e-02 -1.77927734e-01
 87 1 52831 3.9864157143067229e+02 5.6933057657002257e+02 3.2000991511031307e-15 1.9031859142000010e+02 3.5590970980180879e+02 5.5882274526210886e+03 -999 1.09583937e+00 5.961231941e-02 -1.78036938e-01
 88 1 52831 4.2235122288433956e+02 4.9129865822008128e+02 2.9835910657243169e-15 1.6827306242595634e+02 3.8110593121734013e+02 5.4647691245107353e+03 -999 1.10145785e+00 5.956423755e-02 -1.78185680e-01
 89 1 52831 4.2926219025938337e+02 4.4758786500137018e+02 2.8206588105473632e-15 1.5421197108733418e+02 3.8901985900002046e+02 5.3886142637252906e+03 -999 1.10540631e+00 5.942732935e-02 -1.77993941e-01
 90 1 52831 4.2756325245665209e+02 4.3110276002945699e+02 2.7138270757590292e-15 1.4857580201497348e+02 3.8791809223100302e+02 5.0612120502347334e+03 -999 1.10708245e+00 5.932392780e-02 -1.77795469e-01
 91 1 52831 3.9012503600646636e+02 4.1314203175101989e+02 2.6523330057943160e-15 1.4603220127394508e+02 3.4718600890985999e+02 5.9373200737296384e+03 -999 1.11074951e+00 5.945883584e-02 -1.78170044e-01
 92 1 52831 3.7435997663478565e+02 3.9592427317328520e+02 2.5755682888729293e-15 1.4515223057583620e+02 3.2964947943680443e+02 5.4639891212116599e+03 -999 1.11530219e+00 5.967415179e-02 -1.78762454e-01
 93 1 52831 3.7248453249808711e+02 3.8041942465262656e+02 2.5154939385838415e-15 1.4703282829499369e+02 3.2900447302481001e+02 6.4855774351853388e+03 -999 1.12126427e+00 6.008774006e-02 -1.79871053e-01
 94 1 52831 3.6143376940279495e+02 3.8115017558248547e+02 2.4311001197335224e-15 1.5444843131740845e+02 3.1962564623665804e+02 8.2254418153662718e+03 -999 1.12529624e+00 6.035778895e-02 -1.80541044e-01
 95 1 52831 3.4236021824805385e+02 3.7289968465057547e+02 2.3156447285779120e-15 1.5697399421008066e+02 3.0094625133622441e+02 8.0979126060055387e+03 -999 1.12676232e+00 6.040990487e-02 -1.80604447e-01
 96 1 52831 2.8879905904276774e+02 3.6411647730747870e+02 5.9456017327608829e-15 1.4867419072469878e+02 2.4973840148962532e+02 7.9955113830970167e+03 -999 1.12803772e+00 6.050165585e-02 -1.80724260e-01
 97 1 52831 2.5138222340037203e+02 3.4803679412278422e+02 9.3589241709476037e-15 1.3949710476312879e+02 2.1516642840865526e+02 8.4103752798042642e+03 -999 1.12919104e+00 6.051968218e-02 -1.80629518e-01
 98 1 52831 2.3254992947108744e+02 3.3294689040750461e+02 9.7329039169738058e-15 1.3261631781961924e+02 2.0219268238587162e+02 1.1935367083003774e+04 -999 1.13011469e+00 6.050155275e-02 -1.80423623e-01
 99 1 52831 2.2378023317885825e+02 3.2853717459727335e+02 8.7652443755721865e-15 1.4224508486406145e+02 1.9755823002099143e+02 1.0000348392331165e+04 -999 1.13185910e+00 6.064216114e-02 -1.80624042e-01
 100 1 52831 2.1798182693959350e+02 3.3107942870245142e+02 8.5233920406159831e-15 1.5558784945667622e+02 1.9347238343616448e+02 6.7280120889328391e+03 -999 1.13231775e+00 6.067636927e-02 -1.80581135e-01
 101 1 52831 1.9310090826978720e+02 2.8999809407770999e+02 6.1991612539205355e-15 1.1513998210640550e+02 1.6297136475272509e+02 6.9820780292531190e+03 -999 1.13358421e+00 6.079815689e-02 -1.80866615e-01
 102 1 52831 1.7734291360840723e+02 2.5830484048710809e+02 3.9048195080669298e-15 8.6153029108503276e+01 1.4374994489627096e+02 7.5778052669478384e+03 -999 1.13523517e+00 6.090724156e-02 -1.81099325e-01
 103 1 52831 1.6634483626932322e+02 2.5303060189771904e+02 2.9551862681185649e-15 8.1941051115742681e+01 1.3281900707968134e+02 8.0104125933211990e+03 -999 1.13666546e+00 6.101547382e-02 -1.81343309e-01
 104 1 52831 1.5313128663716546e+02 2.5446546317366892e+02 2.3937081075259973e-15 8.3229025773663963e+01 1.2023379194124617e+02 1.0211809223153128e+04 -999 1.13817211e+00 6.108933408e-02 -1.81462342e-01
 105 1 52831 1.4504789908958421e+02 2.6527733933182589e+02 2.2361271704484193e-15 8.5939282691438663e+01 1.1252501160920620e+02 1.2886779364816462e+04 -999 1.13958407e+00 6.115234156e-02 -1.81525403e-01
 106 1 52831 1.2722186162816952e+02 2.5193290219621048e+02 1.6750433784398653e-14 8.0956017632685786e+01 9.5833072637797287e+01 2.0289312531699728e+04 -999 1.14054953e+00 6.112586357e-02 -1.81343008e-01
 107 1 52831 1.1663799302377620e+02 2.5038973785590656e+02 2.0809501420854772e-14 8.5375361983790796e+01 8.6376783211761463e+01 1.9309779405301702e+04 -999 1.14005733e+00 6.085214877e-02 -1.80364102e-01
 108 1 52831 1.1159478357834504e+02 2.4498983955957431e+02 1.7289186558670056e-14 7.2367862476218306e+01 7.9927054993233796e+01 1.3122454608103046e+04 -999 1.13980444e+00 6.073333971e-02 -1.79614528e-01
 109 1 52831 1.0881207066893823e+02 2.3413300612803428e+02 1.4009959702263830e-14 6.6602906127376784e+01 7.8467166677254014e+01 1.4861756298664430e+04 -999 1.13953361e+00 6.072724300e-02 -1.79135268e-01
 110 1 52831 1.0772764117830471e+02 2.2663564251469435e+02 1.1840626899757211e-14 7.0878724100448466e+01 7.8650696062303652e+01 1.6222506287081576e+04 -999 1.13751155e+00 6.047144060e-02 -1.77934701e-01
 111 1 52831 1.0774728696943923e+02 2.1113564004919888e+02 5.8146791507056245e-15 7.3896485058153203e+01 8.0053558526242540e+01 1.6392077547140914e+04 -999 1.13514860e+00 6.017710526e-02 -1.76750672e-01
 112 1 52831 1.0730221852184884e+02 2.0813290665032721e+02 4.8830051887759361e-15 7.3275702723043906e+01 8.2365642879275242e+01 1.6356155403426505e+04 -999 1.13212223e+00 5.975438561e-02 -1.75398595e-01
 113 1 52831 1.0608074195531844e+02 1.9079498479743128e+02 3.8050128500472048e-15 6.3379561220488689e+01 7.9691918568231529e+01 2.3751526245368983e+04 -999 1.12965620e+00 5.938837853e-02 -1.74367656e-01
 114 1 52831 1.1773350390333225e+02 1.7491231773525834e+02 3.8694655656888650e-15 5.3331034135052526e+01 9.3149589306210586e+01 2.1451108121858881e+04 -999 1.12772518e+00 5.915191969e-02 -1.73718590e-01
 115 1 52831 1.2611678096388914e+02 1.7769284552063903e+02 3.7404593988179804e-15 5.2122108067491141e+01 1.0317518549320853e+02 2.0376753946808531e+04 -999 1.12592650e+00 5.895586624e-02 -1.73139711e-01
 116 1 52831 1.2384224552683634e+02 1.6910220986877968e+02 3.0818832504376354e-14 5.2168456881120505e+01 1.0148479618301457e+02 2.0577024549621550e+04 -999 1.12484868e+00 5.888098854e-02 -1.72907736e-01
 117 1 52831 1.3344137586290873e+02 1.6482869606179679e+02 3.8402139758066532e-14 5.3195993777540103e+01 1.1462591442931388e+02 2.6811905795740258e+04 -999 1.12204642e+00 5.854987403e-02 -1.72042945e-01
 118 1 52831 1.3601164835776578e+02 1.6220737326433166e+02 4.3635143854303387e-14 5.9704677482094141e+01 1.1781097702987167e+02 2.0204869780851797e+04 -999 1.11900716e+00 5.816599459e-02 -1.70991423e-01
 119 1 52831 1.4190704204302497e+02 1.6643818541820286e+02 3.2964289900439667e-14 6.2205915629726604e+01 1.2276047707220044e+02 2.1883598238002654e+04 -999 1.11586723e+00 5.774447638e-02 -1.69834669e-01
 120 1 52831 1.4640525078384107e+02 1.7179043254758253e+02 2.6271687475008505e-14 5.7070666608267985e+01 1.2640039058497455e+02 2.1463739749640350e+04 -999 1.11362543e+00 5.744124640e-02 -1.68976438e-01
 121 1 52831 1.3697015295671787e+02 1.5631931091721944e+02 4.1631489765145208e-14 5.4237746054238961e+01 1.1728953450913868e+02 2.2238265499391695e+04 -999 1.11190496e+00 5.722152817e-02 -1.68340141e-01
 122 1 52831 1.3402974955700896e+02 1.4794505116969859e+02 6.4238778644682166e-14 5.0382160076225148e+01 1.1467602428392397e+02 2.0389883693164342e+04 -999 1.10965606e+00 5.693051055e-02 -1.67492185e-01
 123 1 52831 1.2919672161504917e+02 1.4155298685146522e+02 6.5821576350114529e-14 4.5583984322811659e+01 1.1053883096269298e+02 2.0986015826136470e+04 -999 1.10712901e+00 5.659644093e-02 -1.66510718e-01
 124 1 52831 1.3459154793123287e+02 1.4717072391639556e+02 5.1349681570962911e-14 4.0961332823322394e+01 1.1614233494335410e+02 1.8450129441244386e+04 -999 1.10437452e+00 5.623988605e-02 -1.65473224e-01
 125 1 52831 1.4095784543222277e+02 1.5311515264096678e+02 3.8204495125183185e-14 3.9793638073694872e+01 1.2240086547951027e+02 1.9252445410148302e+04 -999 1.10211883e+00 5.595280065e-02 -1.64627792e-01
 126 1 52831 1.2672813642978858e+02 1.3450737340637016e+02 2.4213073685424615e-14 3.6913544643102199e+01 1.1028014694817041e+02 2.1062348412858599e+04 -999 1.10037021e+00 5.573766515e-02 -1.63997766e-01
 127 1 52831 1.2181651436398609e+02 1.2455904419526786e+02 1.4628822344730862e-14 3.6774637444990901e+01 1.0660290575553294e+02 2.0044782602275514e+04 -999 1.09776939e+00 5.540765373e-02 -1.63066757e-01
 128 1 52831 1.1763377682935341e+02 1.2331740470151395e+02 1.0320631936907645e-14 3.4850000981981978e+01 1.0434170086955363e+02 1.8417277222799599e+04 -999 1.09505177e+00 5.509114266e-02 -1.62163796e-01
 129 1 52831 1.3414720371075853e+02 1.4342715399093782e+02 8.3421458407086898e-15 3.7066636925349471e+01 1.1995547701860778e+02 1.8553474159391364e+04 -999 1.09174293e+00 5.467939572e-02 -1.61040280e-01
 130 1 52831 1.3701950513037590e+02 1.4618105101505986e+02 7.5652002033413993e-15 3.4402304075217515e+01 1.2214083713346541e+02 1.7219995782811169e+04 -999 1.08975959e+00 5.441080514e-02 -1.60332119e-01
 131 1 52831 1.1661712368071511e+02 1.2183175698778054e+02 7.4916467770431047e-15 3.4039770285165744e+01 1.0357930915993846e+02 2.1363280049288722e+04 -999 1.08797870e+00 5.418088173e-02 -1.59717974e-01
 132 1 52831 1.1233501406603975e+02 1.1580031454724345e+02 1.3696999917353518e-14 3.5772896911381189e+01 9.9954801270765202e+01 1.6819795366625665e+04 -999 1.08566739e+00 5.388259718e-02 -1.58913607e-01
 133 1 52831 1.1598406722821302e+02 1.1441303662351142e+02 1.6455937540678634e-14 3.3181833272377254e+01 1.0315942525296025e+02 1.5675925214861503e+04 -999 1.08330112e+00 5.359510377e-02 -1.58116271e-01
 134 1 52831 1.2492312051145262e+02 1.2976311655949686e+02 1.7585215336752999e-14 3.5257384969274327e+01 1.1182937792613575e+02 1.8114709247830739e+04 -999 1.08118953e+00 5.335171583e-02 -1.57460063e-01
 135 1 52831 1.4061662620265122e+02 1.5450421063262840e+02 1.7429809639052560e-14 3.1931344985521008e+01 1.2711217822260583e+02 1.4820473253236580e+04 -999 1.07951620e+00 5.314794865e-02 -1.56950716e-01
 136 1 52831 1.1717389597136653e+02 1.2160060750912236e+02 1.1468577289392203e-14 3.3130924953037542e+01 1.0662210748445094e+02 1.6228232090652771e+04 -999 1.07780486e+00 5.293752790e-02 -1.56453213e-01
 137 1 52831 1.0983555239773837e+02 1.1096913738765048e+02 7.0564047093126063e-15 3.6214368396255992e+01 1.0121357364604629e+02 1.5947252544406780e+04 -999 1.07594705e+00 5.271997097e-02 -1.55957280e-01
 138 1 52831 1.1166295726550381e+02 1.1674084124505056e+02 4.9049441030791391e-15 3.5668462765128304e+01 1.0291268231698274e+02 1.3108325662442567e+04 -999 1.07402862e+00 5.250025500e-02 -1.55467221e-01
 139 1 52831 1.3081794210249382e+02 1.3060183068276697e+02 4.4221822973276595e-15 3.6650390752002778e+01 1.1811341679618535e+02 1.3017838721178210e+04 -999 1.07229387e+00 5.228783445e-02 -1.55010017e-01
 140 1 52831 1.3247514686583958e+02 1.3157752685489345e+02 4.1581615065008412e-15 3.3144900358841049e+01 1.1904109406310208e+02 1.1729644972902563e+04 -999 1.07141320e+00 5.216803752e-02 -1.54764671e-01
 141 1 52831 1.1142391675572540e+02 1.0844773466766100e+02 3.7944908730311646e-15 3.2049093329663151e+01 1.0064475351743830e+02 1.7205417795107565e+04 -999 1.07047130e+00 5.203568564e-02 -1.54480637e-01
 142 1 52831 1.1032741877585448e+02 1.0210183579186010e+02 4.6683445352635644e-15 3.2965081402177439e+01 9.8672903409916159e+01 1.2110372546742001e+04 -999 1.06927488e+00 5.188798990e-02 -1.54171839e-01