TITLE = "005.01 ALPHA 3.50 GRIDLEVEL 6"

VARIABLES = "ITERATION"  "GRID_LEVEL"  "GRID_SIZE"  "CONTINUITY"  "MOMENTUMX"  "MOMENTUMY"  "MOMENTUMZ"  "ENERGY"  "TURB1"  "TURB2"  "CL_TOT"  "CD_TOT"  "CM_TOT"

DATASETAUXDATA ParticipantID   = "005"
DATASETAUXDATA SubmissionDate  = "10-31-2024"
DATASETAUXDATA Name            = "Jeffrey A. Housman"
DATASETAUXDATA Email           = "jeffrey.a.housman@nasa.gov"
DATASETAUXDATA Institution     = "NASA Ames Research Center"
DATASETAUXDATA SolverName      = "LAVA Curvilinear"
DATASETAUXDATA BasicAlgorithm  = "RANS"
DATASETAUXDATA TurbulenceModel = "SA-neg"
DATASETAUXDATA GridId          = "Multiblock"
DATASETAUXDATA Discretization  = "Finite difference"
DATASETAUXDATA Order           = "2"
DATASETAUXDATA DistanceCalc    = "Exact"
DATASETAUXDATA Notes           = " "

ZONE T = "005.01 - Alpha 3.50 - Grid Level 6"
AUXDATA Tstatic         = "271.0"
AUXDATA Deltat          = "-999"
AUXDATA GridFileName    = "ONERA-OAT15A_230mmChord_780mmSpan_upZ_2024_06_25-Structured_23mm_Level-6.x"
AUXDATA Misc            = " "
 0 6 1281933 6.2958128459891130e+05 2.2450082936079870e+06 1.0839270234504467e-13 6.5166389894721634e+05 6.8494226107641344e+05 3.9283129085332756e+06 -999 2.04569665e-02 1.052952583e+00 -1.29468551e-02
 1 6 1281933 9.5678087166322011e+05 1.6402543521060247e+06 9.0834517968776403e-14 4.7760547131089732e+05 9.3616957340422098e+05 2.5556721595016839e+06 -999 5.56976911e-02 9.459481160e-01 -2.69219897e-02
 2 6 1281933 1.1697916225867097e+06 1.3771432523908152e+06 7.8101811838181359e-14 5.2004546124239801e+05 1.1255936629054886e+06 1.6701910557042584e+06 -999 1.00374295e-01 8.812875721e-01 -4.44274317e-02
 3 6 1281933 1.3544798074453440e+06 1.2168982355655201e+06 6.8526187877902877e-14 6.1735149940069916e+05 1.3015833937617189e+06 1.0979320419166498e+06 -999 1.42080044e-01 8.373730371e-01 -6.10466969e-02
 4 6 1281933 1.5059873423458342e+06 1.1085001860965849e+06 6.1153600728201685e-14 7.3561631919703120e+05 1.4626134650616320e+06 7.1620514982950641e+05 -999 1.79150438e-01 8.061322181e-01 -7.43482205e-02
 5 6 1281933 1.6676935500276349e+06 1.1047855406109821e+06 5.5393418823497599e-14 8.5859627354227868e+05 1.6640599037675539e+06 4.6399492583372240e+05 -999 2.07791825e-01 7.813349334e-01 -8.46420124e-02
 6 6 1281933 1.5090855259209557e+06 1.1063058922498131e+06 5.0961744310929538e-14 8.8895528536508221e+05 1.5090057564398143e+06 2.7847474672548403e+05 -999 2.27679247e-01 7.520025661e-01 -9.24148369e-02
 7 6 1281933 1.5348634410404724e+06 1.0993283885778529e+06 4.6830481223537151e-14 9.2134940925717936e+05 1.5348435046331661e+06 1.5913358191815251e+05 -999 2.44509926e-01 7.205587483e-01 -9.94325647e-02
 8 6 1281933 1.6179284283165270e+06 1.0518426103951253e+06 4.3782325952968985e-14 9.4878377170887764e+05 1.6351056369830521e+06 1.2480706890505301e+05 -999 2.56937066e-01 6.918527439e-01 -1.04435824e-01
 9 6 1281933 1.8469891206336780e+06 1.0973718667974910e+06 4.1498717347152123e-14 1.0043066578957210e+06 1.9328960642828322e+06 1.0691809146905327e+05 -999 2.66541112e-01 6.660036693e-01 -1.08072844e-01
 10 6 1281933 1.8709354243367238e+06 1.0299039331670171e+06 3.9843518010367079e-14 1.0227052017041391e+06 1.9447926377685431e+06 9.5151110261444279e+04 -999 2.73432604e-01 6.455455439e-01 -1.10650033e-01
 11 6 1281933 1.7384937975579016e+06 1.0441981096219576e+06 3.8332954148298136e-14 9.9178077128814673e+05 1.8091074668247853e+06 8.6828607569146436e+04 -999 2.79099304e-01 6.275738026e-01 -1.12816043e-01
 12 6 1281933 1.6072624996685775e+06 9.3770193526700302e+05 3.6646578730596880e-14 9.6314115373098699e+05 1.6304425131561134e+06 8.0138317641758345e+04 -999 2.85138810e-01 6.072849384e-01 -1.15002410e-01
 13 6 1281933 1.6433460510695854e+06 9.8414890634707664e+05 3.5333711588844377e-14 9.7041342759074434e+05 1.6807830917915816e+06 7.4615273578782188e+04 -999 2.89713750e-01 5.906731195e-01 -1.16626814e-01
 14 6 1281933 1.9030107674736730e+06 1.0847660528286053e+06 3.4195986411820638e-14 1.0345322158274532e+06 2.0119547999154192e+06 6.9915910208937377e+04 -999 2.93698234e-01 5.750343702e-01 -1.18116979e-01
 15 6 1281933 1.7607611590018731e+06 8.7710975194372714e+05 3.3500066652818122e-14 9.6981011000103771e+05 1.8298118008423252e+06 6.5738679216656048e+04 -999 2.95761763e-01 5.661142759e-01 -1.18948841e-01
 16 6 1281933 1.6312682503137814e+06 8.9198026578114263e+05 3.2586676294952160e-14 9.4786586578643171e+05 1.6791735936624198e+06 6.1998450927322679e+04 -999 2.97945211e-01 5.557304202e-01 -1.19825227e-01
 17 6 1281933 1.5130786420355153e+06 8.7349972640758182e+05 3.1671517265955522e-14 9.1186995357297908e+05 1.5353664706660837e+06 5.8733610582267895e+04 -999 2.99853293e-01 5.457293777e-01 -1.20525512e-01
 18 6 1281933 1.6580564174931210e+06 9.2889910095121688e+05 3.0795719517612704e-14 9.4074598049567663e+05 1.7153277439583351e+06 5.5899772193860190e+04 -999 3.01671083e-01 5.351200974e-01 -1.21108394e-01
 19 6 1281933 1.6269033842086690e+06 8.1486715900020988e+05 3.0213184598442554e-14 9.2513407880115090e+05 1.6677525114700019e+06 5.3323315619207518e+04 -999 3.02801440e-01 5.277983388e-01 -1.21409343e-01
 20 6 1281933 1.7929023496801497e+06 9.3706713553173654e+05 2.9712361649305389e-14 9.3638969919242396e+05 1.8982128449021829e+06 5.0988030885258115e+04 -999 3.03832792e-01 5.206838167e-01 -1.21662648e-01
 21 6 1281933 1.5199295831571163e+06 8.1242137895450613e+05 2.9105302489857033e-14 8.7669728251953761e+05 1.5820542959053465e+06 4.8167700987038064e+04 -999 3.04727758e-01 5.133483527e-01 -1.21867733e-01
 22 6 1281933 1.4163200004466095e+06 8.0572801024249732e+05 2.8547445670313136e-14 8.4623585643093660e+05 1.4395953101853430e+06 4.5705868290826082e+04 -999 3.05560598e-01 5.059368110e-01 -1.22058953e-01
 23 6 1281933 1.4810971254413822e+06 7.7722793618079438e+05 2.8082589358201586e-14 8.5127171373642201e+05 1.5131183546636642e+06 4.3537512736451172e+04 -999 3.06336520e-01 4.984196517e-01 -1.22245519e-01
 24 6 1281933 1.5198595188066722e+06 7.6001535476543067e+05 2.7747063712831391e-14 8.3728966079269582e+05 1.5777849964690777e+06 4.1611232998668704e+04 -999 3.06864898e-01 4.928088316e-01 -1.22379162e-01
 25 6 1281933 1.7449042564963866e+06 9.7974188766275265e+05 2.7469386202905140e-14 8.9073252578205673e+05 1.8765482496441586e+06 3.9902027699844337e+04 -999 3.07406113e-01 4.867261194e-01 -1.22520323e-01
 26 6 1281933 1.4660360430016192e+06 8.3653217601789441e+05 2.7022670852858704e-14 8.1202205747305579e+05 1.5610362863911125e+06 3.7808530765202078e+04 -999 3.07781281e-01 4.817335684e-01 -1.22613766e-01
 27 6 1281933 1.2993815364263237e+06 7.2459857308522623e+05 2.6588891242202100e-14 7.6602848529932543e+05 1.3336652139202622e+06 3.5912755119470166e+04 -999 3.08197279e-01 4.761007415e-01 -1.22717393e-01
 28 6 1281933 1.3127570358643630e+06 7.0464146925875393e+05 2.6240717489683032e-14 7.5424378238727641e+05 1.3390817108233343e+06 3.4231119310722468e+04 -999 3.08605508e-01 4.704708298e-01 -1.22816573e-01
 29 6 1281933 1.3983851576338876e+06 7.1672460800913768e+05 2.6031104787622795e-14 7.5134581757600524e+05 1.4647941386896125e+06 3.2734939943148282e+04 -999 3.08931124e-01 4.659391949e-01 -1.22893562e-01
 30 6 1281933 1.5985260927516483e+06 9.0498006983102264e+05 2.5861128688710395e-14 7.9273559087173117e+05 1.7277897786265349e+06 3.1400844341935728e+04 -999 3.09262138e-01 4.613168282e-01 -1.22971264e-01
 31 6 1281933 1.3352416653807305e+06 7.6958921191964345e+05 2.5481838816551589e-14 7.2229916700570472e+05 1.4340218712159044e+06 2.9809513176526521e+04 -999 3.09509733e-01 4.573480607e-01 -1.23025367e-01
 32 6 1281933 1.1555558268385329e+06 6.5170051294092403e+05 2.5078935846157862e-14 6.7287675372475199e+05 1.1961417473054042e+06 2.8372547198003558e+04 -999 3.09785891e-01 4.528998714e-01 -1.23087320e-01
 33 6 1281933 1.1659463777334364e+06 6.3560763278545800e+05 2.4724265224776635e-14 6.5697935160479124e+05 1.1940811451807281e+06 2.7055014816601109e+04 -999 3.10083052e-01 4.480852265e-01 -1.23156371e-01
 34 6 1281933 1.2430689241762655e+06 6.2302662677802413e+05 2.4524118293051012e-14 6.5829201394564018e+05 1.2960274989295434e+06 2.5873292999645153e+04 -999 3.10320879e-01 4.442053264e-01 -1.23213851e-01
 35 6 1281933 1.3509617762870411e+06 7.1484511666321591e+05 2.4430779026266422e-14 6.6593976980763860e+05 1.4510407398116298e+06 2.4811074208260830e+04 -999 3.10521052e-01 4.409179730e-01 -1.23263682e-01
 36 6 1281933 1.1510778346340160e+06 6.1708382771021116e+05 2.4167826997997848e-14 6.1738815907521558e+05 1.2297419185456776e+06 2.3514883465163803e+04 -999 3.10701196e-01 4.375717561e-01 -1.23306561e-01
 37 6 1281933 9.9201750223800773e+05 5.6246932014972728e+05 2.3887644264926807e-14 5.7281581359939615e+05 1.0270383358928472e+06 2.2351835511501791e+04 -999 3.10916632e-01 4.336211891e-01 -1.23359279e-01
 38 6 1281933 9.8148555607411021e+05 5.4061171483046352e+05 2.3707365077332494e-14 5.5166694593666773e+05 1.0007922597412264e+06 2.1307798226201994e+04 -999 3.11138190e-01 4.296177126e-01 -1.23414935e-01
 39 6 1281933 1.0826899830492244e+06 5.7075318675002980e+05 2.3664859577864465e-14 5.5376777229159605e+05 1.1354930777919427e+06 2.0359817930725629e+04 -999 3.11329452e-01 4.262141828e-01 -1.23463932e-01
 40 6 1281933 1.2260885199089500e+06 6.8154959741197305e+05 2.3725982475503683e-14 5.7492481449396070e+05 1.3238706697796404e+06 1.9496770164918944e+04 -999 3.11505762e-01 4.231146565e-01 -1.23509631e-01
 41 6 1281933 1.0253322192729904e+06 5.7593112524765485e+05 2.3456260212938369e-14 5.2530245866941765e+05 1.1082657948308212e+06 1.8491471495909267e+04 -999 3.11650989e-01 4.203034154e-01 -1.23544867e-01
 42 6 1281933 8.5724873368506203e+05 4.8718721209460567e+05 2.3144077155784896e-14 4.8261835662485001e+05 8.9578869040768803e+05 1.7584955734156341e+04 -999 3.11824700e-01 4.170243563e-01 -1.23587624e-01
 43 6 1281933 8.2930233290372929e+05 4.6242557706310641e+05 2.2870367983867884e-14 4.6004145810786216e+05 8.4246635793192475e+05 1.6770889005735837e+04 -999 3.12018143e-01 4.134692999e-01 -1.23635907e-01
 44 6 1281933 9.1018489449155331e+05 4.7907095965364925e+05 2.2750926751288601e-14 4.5937444233686826e+05 9.4796592586542980e+05 1.6037672800279051e+04 -999 3.12185990e-01 4.104621067e-01 -1.23678332e-01
 45 6 1281933 1.0114792632201896e+06 5.5531859088557854e+05 2.2720196609627371e-14 4.6834533262940741e+05 1.0881541588450628e+06 1.5367696995876187e+04 -999 3.12327997e-01 4.079633059e-01 -1.23714583e-01
 46 6 1281933 8.5988946339971980e+05 4.6683724027063511e+05 2.2501071253835874e-14 4.3175730309161870e+05 9.2722203755071654e+05 1.4525007623656133e+04 -999 3.12454772e-01 4.055409528e-01 -1.23745009e-01
 47 6 1281933 7.1535628053454694e+05 4.0808895327679621e+05 2.2230419163429816e-14 3.9573949650913908e+05 7.5090109637332510e+05 1.3763056881005979e+04 -999 3.12610378e-01 4.026412595e-01 -1.23783021e-01
 48 6 1281933 6.7325673286433378e+05 3.7549833173241775e+05 2.1996123972741367e-14 3.7218388346598489e+05 6.8157651099956164e+05 1.3081683120846481e+04 -999 3.12782066e-01 3.995261910e-01 -1.23825754e-01
 49 6 1281933 7.3269102842397965e+05 3.8736391156125412e+05 2.1882778104794146e-14 3.6761153108430753e+05 7.5492203911571600e+05 1.2469946543400778e+04 -999 3.12940273e-01 3.967259562e-01 -1.23865833e-01
 50 6 1281933 8.1558989823464316e+05 4.4187934979751986e+05 2.1893745630868578e-14 3.7264956921103300e+05 8.6843686131478532e+05 1.1915154841891142e+04 -999 3.13076315e-01 3.943623185e-01 -1.23900827e-01
 51 6 1281933 6.9531205374756281e+05 3.7388723995910294e+05 2.1707308444083092e-14 3.4344050657944893e+05 7.4620243150062033e+05 1.1211121750226181e+04 -999 3.13196999e-01 3.921128596e-01 -1.23930378e-01
 52 6 1281933 5.7658326754464488e+05 3.2631530639498838e+05 2.1475226446390838e-14 3.1410800689232623e+05 6.0730631579589436e+05 1.0578094760518368e+04 -999 3.13341328e-01 3.894886039e-01 -1.23966350e-01
 53 6 1281933 5.3190990302635101e+05 2.9970483131573244e+05 2.1272039828536582e-14 2.9262038667462947e+05 5.3956488615882641e+05 1.0007688606635038e+04 -999 3.13504977e-01 3.865905625e-01 -1.24007882e-01
 54 6 1281933 5.7134020663329959e+05 3.0252687998284923e+05 2.1182257009327461e-14 2.8558111036620196e+05 5.8513112760654849e+05 9.4944791461599398e+03 -999 3.13662013e-01 3.838813000e-01 -1.24048474e-01
 55 6 1281933 6.3101747700074560e+05 3.3868161757915339e+05 2.1205977718469784e-14 2.8677640439186216e+05 6.6686855169885873e+05 9.0388418544286633e+03 -999 3.13800954e-01 3.815342161e-01 -1.24085051e-01
 56 6 1281933 5.4217223267395003e+05 2.9166405800389551e+05 2.1019416468559045e-14 2.6517682258367544e+05 5.7944382841253304e+05 8.4626238057093506e+03 -999 3.13918992e-01 3.794311060e-01 -1.24115141e-01
 57 6 1281933 4.4748241582934145e+05 2.5400156298564206e+05 2.0778092001636862e-14 2.4039155090655570e+05 4.7324663435422577e+05 7.9403644867091270e+03 -999 3.14066550e-01 3.769018287e-01 -1.24153161e-01
 58 6 1281933 4.0460051546575763e+05 2.3048194806019141e+05 2.0558831710366098e-14 2.2056069762328867e+05 4.1321240648830240e+05 7.4669838964904775e+03 -999 3.14234819e-01 3.740894183e-01 -1.24197446e-01
 59 6 1281933 4.2268497149247292e+05 2.2817058213130207e+05 2.0458319185014071e-14 2.1125112226460472e+05 4.3157502652536385e+05 7.0524598038562726e+03 -999 3.14397710e-01 3.714330273e-01 -1.24241385e-01
 60 6 1281933 4.5388284448680311e+05 2.4078999043908317e+05 2.0479869463289853e-14 2.0796055902715883e+05 4.7377771679663128e+05 6.6887986772834984e+03 -999 3.14543942e-01 3.690925215e-01 -1.24281959e-01
 61 6 1281933 3.9251548536053172e+05 2.1369442208979404e+05 2.0297348108952682e-14 1.9202049857419010e+05 4.1598939303453214e+05 6.1878188718079891e+03 -999 3.14668634e-01 3.670191481e-01 -1.24316181e-01
 62 6 1281933 3.2509007365604525e+05 1.8903632265280056e+05 2.0060657182262876e-14 1.7425858175217986e+05 3.4391263947618852e+05 5.7603910774923797e+03 -999 3.14819536e-01 3.645542012e-01 -1.24358263e-01
 63 6 1281933 2.8854749147884129e+05 1.7087588595855466e+05 1.9824844751699832e-14 1.5843097765779580e+05 2.9689431430065323e+05 5.3766071546066778e+03 -999 3.14995321e-01 3.617348947e-01 -1.24408239e-01
 64 6 1281933 2.9244833253383893e+05 1.6547805728498049e+05 1.9696070717294044e-14 1.4929004975178876e+05 2.9890759166047157e+05 5.0401650973017604e+03 -999 3.15166167e-01 3.590389039e-01 -1.24458106e-01
 65 6 1281933 3.0461243441375264e+05 1.6736370103735582e+05 1.9688763829622047e-14 1.4415151657380702e+05 3.1556207624576980e+05 4.7481259752821916e+03 -999 3.15319553e-01 3.566405351e-01 -1.24504464e-01
 66 6 1281933 2.6478675060728181e+05 1.5188487902193164e+05 1.9513296323151711e-14 1.3346980862290782e+05 2.7860708414309070e+05 4.3457869229663602e+03 -999 3.15445795e-01 3.545671456e-01 -1.24541776e-01
 67 6 1281933 2.1933713600764915e+05 1.3691500238842744e+05 1.9290296990587762e-14 1.2115984754947929e+05 2.3147363628404582e+05 4.0064331816168337e+03 -999 3.15598757e-01 3.520790325e-01 -1.24587398e-01
 68 6 1281933 1.9063474174418018e+05 1.2476572893558627e+05 1.9044085165624569e-14 1.0930801081182029e+05 1.9707271018278375e+05 3.7231857086537229e+03 -999 3.15778199e-01 3.491857851e-01 -1.24641719e-01
 69 6 1281933 1.8648176150281160e+05 1.1891574221719219e+05 1.8908169840985000e-14 1.0130392120004875e+05 1.9108224793639604e+05 3.4511574940211281e+03 -999 3.15952597e-01 3.463890535e-01 -1.24696037e-01
 70 6 1281933 1.8745012355708887e+05 1.1603916684907697e+05 1.8891397112844574e-14 9.5825457659091058e+04 1.9323782277333160e+05 3.2273325137972697e+03 -999 3.16109147e-01 3.438750936e-01 -1.24747094e-01
 71 6 1281933 1.6358470378444259e+05 1.0746433242679157e+05 1.8716679499066001e-14 8.9008979137612725e+04 1.7110051627171092e+05 2.9416164697377235e+03 -999 3.16232084e-01 3.417653393e-01 -1.24785120e-01
 72 6 1281933 1.3551274124214030e+05 9.8674029668623029e+04 1.8485593073425381e-14 8.0937965235186915e+04 1.4244487480046277e+05 2.6923339751179215e+03 -999 3.16381448e-01 3.392136313e-01 -1.24831594e-01
 73 6 1281933 1.1503076561202909e+05 9.0740391473150055e+04 1.8224661986912526e-14 7.2550346241437452e+04 1.1912817557721531e+05 2.4764478378910990e+03 -999 3.16558434e-01 3.361982583e-01 -1.24887548e-01
 74 6 1281933 1.0771009732329829e+05 8.5538844360298375e+04 1.8059057071558942e-14 6.6075130240650309e+04 1.1050983924546896e+05 2.2940091184941321e+03 -999 3.16730549e-01 3.332602690e-01 -1.24944109e-01
 75 6 1281933 1.0363481364034320e+05 8.1691976712177377e+04 1.7993964961997134e-14 6.1107976573260232e+04 1.0636243840767474e+05 2.1391338314852337e+03 -999 3.16884815e-01 3.306031009e-01 -1.24998270e-01
 76 6 1281933 9.0626937814628691e+04 7.6719762585371747e+04 1.7826642362021977e-14 5.5772781142454267e+04 9.4076852682860539e+04 1.9300114527993940e+03 -999 3.17001209e-01 3.283562249e-01 -1.25034197e-01
 77 6 1281933 7.5046886529731186e+04 7.1315009909205910e+04 1.7606505132422617e-14 4.9572373947598629e+04 7.8208270235636635e+04 1.7580724909887174e+03 -999 3.17143061e-01 3.256039071e-01 -1.25077963e-01
 78 6 1281933 6.2169730925905045e+04 6.5903062252391624e+04 1.7324847587601218e-14 4.2982453998583216e+04 6.4037509594818650e+04 1.6201697849417583e+03 -999 3.17312419e-01 3.222843395e-01 -1.25130983e-01
 79 6 1281933 5.5320858971439739e+04 6.1670828271924162e+04 1.7104930180060474e-14 3.7662942924168070e+04 5.6451227971922381e+04 1.5108974101380907e+03 -999 3.17476295e-01 3.190038855e-01 -1.25184928e-01
 80 6 1281933 5.0550553272470992e+04 5.8274071241876649e+04 1.6976269915020751e-14 3.3590247892890467e+04 5.1366149447748263e+04 1.4231484276314343e+03 -999 3.17622045e-01 3.159861505e-01 -1.25237508e-01
 81 6 1281933 4.3937160117594976e+04 5.4976583441984512e+04 1.6801397598166646e-14 3.0458143079687667e+04 4.4964917764988139e+04 1.2958080910269991e+03 -999 3.17716904e-01 3.132339461e-01 -1.25257713e-01
 82 6 1281933 3.6166250283295514e+04 5.1291395205266985e+04 1.6565863719493320e-14 2.6887316531483448e+04 3.7079738341132550e+04 1.2235476326547073e+03 -999 3.17828363e-01 3.097645334e-01 -1.25277727e-01
 83 6 1281933 2.9449254018610005e+04 4.7481090766492671e+04 1.6266271985975488e-14 2.3209477695807764e+04 3.0004612351213673e+04 1.2272534972835954e+03 -999 3.17954185e-01 3.054486900e-01 -1.25295384e-01
 84 6 1281933 2.5554163210200259e+04 4.4431279755353018e+04 1.5992162426185855e-14 2.0466327484742062e+04 2.6010298079226464e+04 1.3062664655179408e+03 -999 3.18065090e-01 3.010765946e-01 -1.25306844e-01
 85 6 1281933 2.3195758416711302e+04 4.2088738272832459e+04 1.5771130911200399e-14 1.8638780761977556e+04 2.3736914420471501e+04 1.4898942705768623e+03 -999 3.18154799e-01 2.969048279e-01 -1.25314581e-01
 86 6 1281933 2.0367750961431968e+04 3.9569617281337421e+04 1.5550311874515345e-14 1.6959729374264698e+04 2.1216067483419250e+04 1.9317443903681335e+03 -999 3.18204465e-01 2.922652810e-01 -1.25246278e-01
 87 6 1281933 1.7691339769221737e+04 3.6777266775063799e+04 1.5221395958190178e-14 1.5315005377301000e+04 1.8913705970622163e+04 2.6546485682649795e+03 -999 3.18304343e-01 2.861129274e-01 -1.25150419e-01
 88 6 1281933 1.6335256909122854e+04 3.4193506794693953e+04 1.4855991818383080e-14 1.4081124215001018e+04 1.8043858386708660e+04 3.8243227346945409e+03 -999 3.18515500e-01 2.782397577e-01 -1.25033288e-01
 89 6 1281933 1.6257069325565737e+04 3.2573694114107180e+04 1.4558786110143733e-14 1.3529278715002780e+04 1.8394378145851559e+04 7.6337848817112617e+03 -999 3.18821730e-01 2.700977238e-01 -1.24952426e-01
 90 6 1281933 1.6635457373209250e+04 3.1840865378729573e+04 1.4439935800690299e-14 1.3483316671399611e+04 1.9088176999133262e+04 2.0746066318051733e+04 -999 3.19193639e-01 2.619452874e-01 -1.24952374e-01
 91 6 1281933 1.5909799600268398e+04 2.9212005384332442e+04 1.4032578000662213e-14 1.2810099475476913e+04 1.8477987103936830e+04 8.8116112514640554e+04 -999 3.19810972e-01 2.500044832e-01 -1.25154500e-01
 92 6 1281933 1.6358223974687216e+04 2.7744759566126431e+04 1.3909212231838938e-14 1.2565593243209836e+04 1.8925195129577020e+04 2.2683206798766277e+05 -999 3.20601358e-01 2.326197332e-01 -1.25765687e-01
 93 6 1281933 1.7492427534747076e+04 3.7013938758200973e+04 1.4056230395056220e-14 1.2884130187710431e+04 2.1827356551913668e+04 3.9939664021254232e+05 -999 3.21035801e-01 2.111262753e-01 -1.27098538e-01
 94 6 1281933 1.7313474438689605e+04 3.8845190527679988e+04 1.3637230198558885e-14 1.2832561352163106e+04 2.4303546764727511e+04 1.5356226146283624e+05 -999 3.20848988e-01 2.062820226e-01 -1.27520192e-01
 95 6 1281933 1.7278946759914041e+04 4.4905273995452415e+04 1.3421875278029730e-14 1.3601905094066396e+04 2.9491302028746817e+04 6.5701767648556200e+05 -999 3.20641536e-01 2.027806388e-01 -1.27828805e-01
 96 6 1281933 1.6521474889693382e+04 2.1753477707330680e+04 1.3057942997538405e-14 1.2046126544516106e+04 1.8155693663071128e+04 9.6667325862316974e+05 -999 3.19772433e-01 1.801188852e-01 -1.29794895e-01
 97 6 1281933 1.5872653627843050e+04 2.2868911709047949e+04 1.2246266620448767e-14 1.1110035813820383e+04 1.6976461665328210e+04 4.8670493563985452e+05 -999 3.17191366e-01 1.599173339e-01 -1.31557761e-01
 98 6 1281933 1.5529593636057485e+04 4.7821837535380102e+04 1.0941690941212879e-14 1.1120712922235070e+04 1.9029718505010907e+04 1.3182832795621336e+06 -999 3.14242966e-01 1.487217842e-01 -1.32147608e-01
 99 6 1281933 1.5317943807922813e+04 4.7803625331724761e+04 1.0415527427627956e-14 1.0653599422692956e+04 1.8795432585280258e+04 4.2611613977885479e+05 -999 3.13600632e-01 1.470902571e-01 -1.32161824e-01
 100 6 1281933 1.5197562673404866e+04 5.7415385465566265e+04 1.0222009628538443e-14 1.0485432438568101e+04 1.8781766569613934e+04 3.8529695883878222e+05 -999 3.13180345e-01 1.460746004e-01 -1.32161695e-01
 101 6 1281933 1.3704363326024051e+04 2.6245018035036661e+04 7.7741538561341852e-14 9.3550713633991872e+03 1.4380597633593563e+04 2.2301372784297759e+05 -999 3.05989635e-01 1.306766159e-01 -1.31703229e-01
 102 6 1281933 1.2617951799198408e+04 2.1818732675044612e+04 6.6464352850358053e-14 8.2139667861868402e+03 1.3254347615683308e+04 1.3467780755810405e+05 -999 3.01325918e-01 1.224708911e-01 -1.30709987e-01
 103 6 1281933 1.2064961866475844e+04 1.9771164144166065e+04 4.9005009533319052e-14 7.5056356439948704e+03 1.2572133744403956e+04 8.0723168770722332e+04 -999 2.98996061e-01 1.178151628e-01 -1.29946816e-01
 104 6 1281933 1.2098704390115687e+04 1.8503441305129545e+04 3.1517758072712920e-14 6.9220624645939024e+03 1.2399157662434844e+04 4.6537244056097370e+04 -999 2.97599336e-01 1.140163741e-01 -1.29301146e-01
 105 6 1281933 1.1820732845894570e+04 1.8716627907474383e+04 2.5029220670657624e-14 6.6806639466530851e+03 1.2360185102331250e+04 3.7915054967834825e+04 -999 2.97255382e-01 1.122800024e-01 -1.29033131e-01
 106 6 1281933 9.9835325547545708e+03 1.5337807355531597e+04 2.7962049479881575e-13 5.4910694762598650e+03 1.0111294513479377e+04 3.5928932412847702e+04 -999 3.03821129e-01 1.060510874e-01 -1.30060849e-01
 107 6 1281933 8.5499493131837553e+03 1.2215371407313965e+04 5.6237924124954776e-13 4.9033616440339883e+03 8.2861808606676750e+03 9.9841249469905728e+04 -999 3.20566051e-01 9.751454490e-02 -1.33877681e-01
 108 6 1281933 8.4641812230730247e+03 1.3162399599002983e+04 6.6563403648086489e-13 4.8686917003752442e+03 8.2642266659578581e+03 1.5772940641942603e+05 -999 3.47686982e-01 9.116116183e-02 -1.41343061e-01
 109 6 1281933 8.0157050081365860e+03 1.1763052462216760e+04 6.5698735566460240e-13 4.3394981346543673e+03 8.2450853833767596e+03 1.6749447746128647e+05 -999 3.63387897e-01 8.894869194e-02 -1.45987500e-01
 110 6 1281933 7.3454085702740995e+03 1.0648494724402319e+04 6.3369642520665235e-13 3.9529164765441728e+03 8.2770805533737421e+03 2.2042256969742646e+05 -999 3.83687390e-01 8.654262706e-02 -1.52036538e-01
 111 6 1281933 4.7102260326930864e+03 6.8428788414125784e+03 1.1183635567279665e-12 2.6761983506673300e+03 4.6360398393207779e+03 1.7523318874283502e+05 -999 4.27462944e-01 8.245193202e-02 -1.64191409e-01
 112 6 1281933 3.7189746242315314e+03 4.7413020458384663e+03 1.6195220086725183e-12 1.9458897426355850e+03 3.5948028129823233e+03 1.7765277513630083e+05 -999 5.01277379e-01 7.668518977e-02 -1.82775226e-01
 113 6 1281933 3.4581798747948701e+03 4.2503830137952937e+03 1.5047596184459068e-12 1.3342974262876362e+03 3.2897186084308764e+03 1.5493611792497171e+05 -999 5.72507654e-01 7.250902768e-02 -1.96752000e-01
 114 6 1281933 3.5279209530673179e+03 3.8206235102835740e+03 1.2984938537863139e-12 9.6214423364312051e+02 3.3775330776873952e+03 1.3128163530592385e+05 -999 6.47529349e-01 6.922012209e-02 -2.06744045e-01
 115 6 1281933 3.3739125185037133e+03 3.9131558973573920e+03 1.1746629155249288e-12 7.8562367518560825e+02 3.2442561197302598e+03 9.8195538285821123e+04 -999 6.82459144e-01 6.853896530e-02 -2.08815745e-01
 116 6 1281933 2.8476402541888283e+03 3.5581248140074081e+03 1.5484629662746448e-12 6.4960217220343600e+02 2.7115958271887130e+03 9.4607300510589383e+04 -999 7.20858510e-01 6.918356036e-02 -2.08654778e-01
 117 6 1281933 2.5247919307414113e+03 2.9241774472021448e+03 2.2277538739918129e-12 5.7479782270838439e+02 2.3712102423209558e+03 6.4012379719184260e+04 -999 7.62750637e-01 7.007973877e-02 -2.07519508e-01
 118 6 1281933 2.3895237110262215e+03 2.7483662071040508e+03 2.4444684010338835e-12 6.1369325561085816e+02 2.2289053670608287e+03 3.4283461742932843e+04 -999 7.86452903e-01 7.062621701e-02 -2.06228546e-01
 119 6 1281933 2.3290058675960645e+03 2.5978957695103618e+03 2.4798051622605923e-12 5.9843737648571710e+02 2.1592672646580463e+03 2.1886121017568999e+04 -999 8.01941821e-01 7.097152609e-02 -2.05148347e-01
 120 6 1281933 2.2798765153809732e+03 2.5233210944899452e+03 2.4968091553270028e-12 5.6415326524533646e+02 2.1085504624873456e+03 1.4069865683374454e+04 -999 8.13407018e-01 7.122096504e-02 -2.04252770e-01
 121 6 1281933 2.1986878309399626e+03 2.5936289710548890e+03 2.3868930898750253e-12 6.6863601060666110e+02 2.0286375999854822e+03 9.9837499742370546e+03 -999 8.30962553e-01 7.187625825e-02 -2.03691772e-01
 122 6 1281933 2.1668021075530510e+03 2.7831668296294633e+03 2.5349362194397751e-12 8.7623463234329290e+02 1.9950711160253861e+03 8.6825745281035197e+03 -999 8.49220146e-01 7.249335731e-02 -2.02965184e-01
 123 6 1281933 2.1653089297526667e+03 3.0280166850834003e+03 2.9057933264014093e-12 1.1129303248598237e+03 1.9912666923618665e+03 9.1187426287532562e+03 -999 8.67411766e-01 7.299013893e-02 -2.02107244e-01
 124 6 1281933 2.2022393289557899e+03 3.2779726166101050e+03 3.2359386982599069e-12 1.3263610207400086e+03 2.0187720754074853e+03 1.0796515472245321e+04 -999 8.84903510e-01 7.336311202e-02 -2.01146026e-01
 125 6 1281933 2.2261717826008235e+03 3.5608541768135624e+03 3.4168041642587808e-12 1.4895218589390322e+03 2.0414929631503501e+03 1.2068860437928952e+04 -999 8.94775683e-01 7.347907731e-02 -2.00558059e-01
 126 6 1281933 2.1624191141071979e+03 3.4314801579738919e+03 3.0899522074765994e-12 1.4957849072596114e+03 1.9894147489117702e+03 1.2985197385854217e+04 -999 9.03372457e-01 7.366386166e-02 -2.00258736e-01
 127 6 1281933 2.1315131383753860e+03 3.2214711813474214e+03 2.7323076150700319e-12 1.4426684931367313e+03 1.9612982240390591e+03 1.3435487919040053e+04 -999 9.13226003e-01 7.386567152e-02 -1.99804794e-01
 128 6 1281933 2.1185307693013492e+03 2.9821288830703465e+03 2.4357589361523753e-12 1.3384203685147527e+03 1.9433968077190139e+03 1.3543553623718313e+04 -999 9.23784181e-01 7.405733315e-02 -1.99220540e-01
 129 6 1281933 2.1245303092056597e+03 2.7751310780913054e+03 2.2752611978461429e-12 1.2151988953895373e+03 1.9370176864803270e+03 1.4046522246594421e+04 -999 9.34485205e-01 7.419734402e-02 -1.98577146e-01
 130 6 1281933 2.1468870484561021e+03 2.7049521621943636e+03 2.2464956389134143e-12 1.1559382180340224e+03 1.9486690918551014e+03 1.4364299753106243e+04 -999 9.41926725e-01 7.424202151e-02 -1.98083115e-01
 131 6 1281933 2.1271023900121472e+03 2.7248451160891714e+03 2.0929352794051793e-12 1.2382766443778426e+03 1.9335432177430300e+03 1.4881532122995313e+04 -999 9.47250935e-01 7.428889561e-02 -1.97922939e-01
 132 6 1281933 2.1210047179695393e+03 2.6807975293097907e+03 1.9021371815677993e-12 1.2813800349081673e+03 1.9273565111233193e+03 1.4309792892829124e+04 -999 9.54343320e-01 7.432952613e-02 -1.97600424e-01
 133 6 1281933 2.1098546388485224e+03 2.6434436934412606e+03 1.7952557066037063e-12 1.3071132673947138e+03 1.9133736087208151e+03 1.4666199032021359e+04 -999 9.62879291e-01 7.434961918e-02 -1.97177452e-01
 134 6 1281933 2.1294319860004221e+03 2.6072761604326711e+03 1.8430980990592188e-12 1.3145249520694490e+03 1.9183721632219031e+03 1.5057747390779936e+04 -999 9.73493436e-01 7.431376845e-02 -1.96606392e-01
 135 6 1281933 2.1466509462085146e+03 2.5977277162058026e+03 1.9002768891301216e-12 1.3217508987752797e+03 1.9276876867026033e+03 1.4739896405876743e+04 -999 9.78511729e-01 7.425236674e-02 -1.96310167e-01
 136 6 1281933 2.0574901449185813e+03 2.4059022973642873e+03 1.6146985516960540e-12 1.1126630979203185e+03 1.8415592416214465e+03 1.5223666418294213e+04 -999 9.81770865e-01 7.414272614e-02 -1.95924169e-01
 137 6 1281933 1.9930837807757960e+03 2.2230242096193228e+03 1.4090944588073740e-12 9.0260035942420188e+02 1.7766206264628602e+03 1.5675854200314947e+04 -999 9.85721386e-01 7.397727306e-02 -1.95403168e-01
 138 6 1281933 1.9618206900564483e+03 2.0733709061855889e+03 1.3410207331781133e-12 7.4866649057213942e+02 1.7402220798726019e+03 1.6214320360535292e+04 -999 9.90025182e-01 7.375458277e-02 -1.94769637e-01
 139 6 1281933 1.9502339727329154e+03 2.0007895423146758e+03 1.3541845461327355e-12 6.8201636781003492e+02 1.7253769556304608e+03 1.6692557451734207e+04 -999 9.93393420e-01 7.354552948e-02 -1.94225497e-01
 140 6 1281933 1.9682007147718305e+03 1.9837816696974660e+03 1.3911721986624161e-12 6.4380746768008248e+02 1.7391002867514542e+03 1.7323627726641000e+04 -999 9.96594554e-01 7.332380470e-02 -1.93682665e-01