TITLE = "005.01 ALPHA 2.50 GRIDLEVEL 5"

VARIABLES = "ITERATION"  "GRID_LEVEL"  "GRID_SIZE"  "CONTINUITY"  "MOMENTUMX"  "MOMENTUMY"  "MOMENTUMZ"  "ENERGY"  "TURB1"  "TURB2"  "CL_TOT"  "CD_TOT"  "CM_TOT"

DATASETAUXDATA ParticipantID   = "005"
DATASETAUXDATA SubmissionDate  = "10-31-2024"
DATASETAUXDATA Name            = "Jeffrey A. Housman"
DATASETAUXDATA Email           = "jeffrey.a.housman@nasa.gov"
DATASETAUXDATA Institution     = "NASA Ames Research Center"
DATASETAUXDATA SolverName      = "LAVA Curvilinear"
DATASETAUXDATA BasicAlgorithm  = "RANS"
DATASETAUXDATA TurbulenceModel = "SA-neg"
DATASETAUXDATA GridId          = "Multiblock"
DATASETAUXDATA Discretization  = "Finite difference"
DATASETAUXDATA Order           = "2"
DATASETAUXDATA DistanceCalc    = "Exact"
DATASETAUXDATA Notes           = " "

ZONE T = "005.01 - Alpha 2.50 - Grid Level 5"
AUXDATA Tstatic         = "271.0"
AUXDATA Deltat          = "-999"
AUXDATA GridFileName    = "ONERA-OAT15A_230mmChord_780mmSpan_upZ_2024_06_25-Structured_23mm_Level-5.x"
AUXDATA Misc            = " "
 0 5 752103 4.8294664913367986e+05 1.5734385708449006e+06 7.6803864346747317e-14 4.6168044997759984e+05 5.0826599881065747e+05 2.7089216315429122e+06 -999 1.28417274e-02 9.094846659e-01 -6.45762171e-03
 1 5 752103 7.2379726343030017e+05 1.1734367766844365e+06 6.5408766611780619e-14 3.5392422996017896e+05 7.0323284986718581e+05 1.7614680724734082e+06 -999 4.01979290e-02 8.306802513e-01 -1.91071415e-02
 2 5 752103 8.9196618432046694e+05 9.9894432555793796e+05 5.7033630106592666e-14 3.9147788355984422e+05 8.5517221361127193e+05 1.1503641748335336e+06 -999 7.26654009e-02 7.840124961e-01 -3.43491158e-02
 3 5 752103 1.0413617647587898e+06 8.9085796924474009e+05 5.0660715709157718e-14 4.6873053434865538e+05 9.9788555711007200e+05 7.5543557171009411e+05 -999 1.02441441e-01 7.535146633e-01 -4.80030959e-02
 4 5 752103 1.1696355279627980e+06 8.1554615274399333e+05 4.5705517855581102e-14 5.6350715035860380e+05 1.1327248603544130e+06 4.8890513490873674e+05 -999 1.29380075e-01 7.326837686e-01 -5.92221172e-02
 5 5 752103 1.3029637317962763e+06 8.1761293797264923e+05 4.1823121945378796e-14 6.6216573992496391e+05 1.2923717156855613e+06 3.1606790548889322e+05 -999 1.49035768e-01 7.162720658e-01 -6.74314949e-02
 6 5 752103 1.1892699619624761e+06 8.4603801764644019e+05 3.8895050417020038e-14 6.9686407042710122e+05 1.1814123198655625e+06 1.6856109065213779e+05 -999 1.62358008e-01 6.949751246e-01 -7.37374046e-02
 7 5 752103 1.2212273575009219e+06 8.5450641893243778e+05 3.6284632252575658e-14 7.2807767697931582e+05 1.2102495025312740e+06 1.2002338160893397e+05 -999 1.73681777e-01 6.718767499e-01 -7.94563231e-02
 8 5 752103 1.2850359034432706e+06 8.3642074158083973e+05 3.4362784537271373e-14 7.4856883406591183e+05 1.2941716975811031e+06 9.9274658979890955e+04 -999 1.82819530e-01 6.491153882e-01 -8.37413569e-02
 9 5 752103 1.5570462159160851e+06 9.1363994205024838e+05 3.2756821623078733e-14 8.2741645578584541e+05 1.6281991843356674e+06 8.7384959709213086e+04 -999 1.91816377e-01 6.237653638e-01 -8.75564721e-02
 10 5 752103 1.4542203022675433e+06 7.6052041025599919e+05 3.1840339494698670e-14 7.9615573266201804e+05 1.4992154343948804e+06 7.8465301097821750e+04 -999 1.96665555e-01 6.086827115e-01 -8.95523584e-02
 11 5 752103 1.3771986038716522e+06 7.8409621724194859e+05 3.0783056827521313e-14 7.8824517467870412e+05 1.4094448289104085e+06 7.1063773125831634e+04 -999 2.01568823e-01 5.919473476e-01 -9.16469859e-02
 12 5 752103 1.2773578833598094e+06 7.6406939958363120e+05 2.9760489704164896e-14 7.5993640463640739e+05 1.2938554833631581e+06 6.5325843167775820e+04 -999 2.05667571e-01 5.762609354e-01 -9.33684302e-02
 13 5 752103 1.4281838179459004e+06 8.1167492494032218e+05 2.8803831826913402e-14 7.9751085887389351e+05 1.4774019519695912e+06 6.0719496471005143e+04 -999 2.09503903e-01 5.597881686e-01 -9.50234820e-02
 14 5 752103 1.3437189333536010e+06 6.9475793457422976e+05 2.8234026746038340e-14 7.6115070987423626e+05 1.3721118896573880e+06 5.6688679968213684e+04 -999 2.11673624e-01 5.495549697e-01 -9.60251511e-02
 15 5 752103 1.5451092603709800e+06 8.3709624741261627e+05 2.7793695042966585e-14 7.9796800329457398e+05 1.6406126190689420e+06 5.3306465741612446e+04 -999 2.13798861e-01 5.391789132e-01 -9.70792464e-02
 16 5 752103 1.2958146403580196e+06 7.2858425144042028e+05 2.7248308073578930e-14 7.2849493009222276e+05 1.3604906519793977e+06 4.9310534855585196e+04 -999 2.15446054e-01 5.301956258e-01 -9.79095747e-02
 17 5 752103 1.1978624407603010e+06 6.8075223278796347e+05 2.6679228817716487e-14 7.0375456323299767e+05 1.2173892944528689e+06 4.5910289829535483e+04 -999 2.17124852e-01 5.201337384e-01 -9.87171480e-02
 18 5 752103 1.1741079900652259e+06 6.4002700432223303e+05 2.6277015776506890e-14 6.8610600028922828e+05 1.1854921156717350e+06 4.3058490502822933e+04 -999 2.18416508e-01 5.113592588e-01 -9.92759598e-02
 19 5 752103 1.3049008843747443e+06 6.8385382028161583e+05 2.5963982091654009e-14 6.9108637704314175e+05 1.3670969745308147e+06 4.0589115477311796e+04 -999 2.19462061e-01 5.034435181e-01 -9.96715860e-02
 20 5 752103 1.2935017462579780e+06 6.3043895712445420e+05 2.5743795326314078e-14 6.9527435033390648e+05 1.3417335960835589e+06 3.8396518523897779e+04 -999 2.20214969e-01 4.971066483e-01 -9.99317533e-02
 21 5 752103 1.1753939114652446e+06 6.5285517041237443e+05 2.5372302591703760e-14 6.5574572375065309e+05 1.2259572227465322e+06 3.5856149566013177e+04 -999 2.20812577e-01 4.909774495e-01 -1.00130137e-01
 22 5 752103 1.0452009194804044e+06 5.7717063194385276e+05 2.4934677542443533e-14 6.1091199217189639e+05 1.0684230893767620e+06 3.3632658437845770e+04 -999 2.21467190e-01 4.836356374e-01 -1.00345458e-01
 23 5 752103 1.0499121323946887e+06 5.9362636580371612e+05 2.4541400525768052e-14 5.9888395053824375e+05 1.0735730887908004e+06 3.1688250946620057e+04 -999 2.22038626e-01 4.766268464e-01 -1.00537609e-01
 24 5 752103 1.1963496206728322e+06 6.3357927085498185e+05 2.4259492002717038e-14 6.1881266928786167e+05 1.2579758240491888e+06 3.0001448841530055e+04 -999 2.22557757e-01 4.698036798e-01 -1.00721188e-01
 25 5 752103 1.1321008698170716e+06 5.3668476802317158e+05 2.4032430710563738e-14 5.9385995202395634e+05 1.1836570340602186e+06 2.8496823220888986e+04 -999 2.22864601e-01 4.654581404e-01 -1.00836179e-01
 26 5 752103 1.0159707816576562e+06 5.3359849436705338e+05 2.3638767573431097e-14 5.6254377977713314e+05 1.0603739570451849e+06 2.6745738122775507e+04 -999 2.23157187e-01 4.605429817e-01 -1.00946983e-01
 27 5 752103 9.0520937761701283e+05 5.0930292141109129e+05 2.3193743633707977e-14 5.2515321340499027e+05 9.2846370771818794e+05 2.5200017927694196e+04 -999 2.23483534e-01 4.549084815e-01 -1.01073319e-01
 28 5 752103 9.1068578449068556e+05 5.0867716683974769e+05 2.2814963486007487e-14 5.1154359568512539e+05 9.3158908562188048e+05 2.3833423831034317e+04 -999 2.23801247e-01 4.493444457e-01 -1.01197078e-01
 29 5 752103 1.0411857934091424e+06 5.5206332559297769e+05 2.2564035421902423e-14 5.2536433812837536e+05 1.0962797844874091e+06 2.2617848724239429e+04 -999 2.24102537e-01 4.439820762e-01 -1.01312291e-01
 30 5 752103 1.0019717278962173e+06 4.7138801802124694e+05 2.2453032694278548e-14 5.1139100113784830e+05 1.0480467786204207e+06 2.1535393722702316e+04 -999 2.24294283e-01 4.404839573e-01 -1.01384123e-01
 31 5 752103 8.8819671670196985e+05 4.7594696414320433e+05 2.2215468889111423e-14 4.7880208700607810e+05 9.3346165040368401e+05 2.0271475937266787e+04 -999 2.24481818e-01 4.365059449e-01 -1.01451693e-01
 32 5 752103 7.7388571227109770e+05 4.3546880807055731e+05 2.1977196835968995e-14 4.4207641358181613e+05 7.9740498247671092e+05 1.9141931323434874e+04 -999 2.24696111e-01 4.319613953e-01 -1.01529153e-01
 33 5 752103 7.6783148000083677e+05 4.2673051908248663e+05 2.1819930980681865e-14 4.2601684461435332e+05 7.8152543414734316e+05 1.8147250311435546e+04 -999 2.24915391e-01 4.272969994e-01 -1.01608748e-01
 34 5 752103 8.4054665946863638e+05 4.4494739470165852e+05 2.1786841117267075e-14 4.2545844848735677e+05 8.8060156232393743e+05 1.7261074213859425e+04 -999 2.25094930e-01 4.234589434e-01 -1.01674340e-01
 35 5 752103 9.6543753752459353e+05 5.4959143849538546e+05 2.1809253880667530e-14 4.4501698128742917e+05 1.0415463917349138e+06 1.6458914101795817e+04 -999 2.25264216e-01 4.198260566e-01 -1.01736624e-01
 36 5 752103 8.0044250035254681e+05 4.6717291768130125e+05 2.1628503927807902e-14 4.0318116982951574e+05 8.6581601476623595e+05 1.5525166769707281e+04 -999 2.25391081e-01 4.167097860e-01 -1.01781918e-01
 37 5 752103 6.6048978530463576e+05 3.8598398327759444e+05 2.1404693692634238e-14 3.6683013519243547e+05 6.9040615950772131e+05 1.4676473729181314e+04 -999 2.25546600e-01 4.129494687e-01 -1.01837934e-01
 38 5 752103 6.3196063229901285e+05 3.6368194011549978e+05 2.1207719022043196e-14 3.4734454996589338e+05 6.4203688777170144e+05 1.3922907476437533e+04 -999 2.25707562e-01 4.091239130e-01 -1.01896489e-01
 39 5 752103 6.9821745006715308e+05 3.7695051716842380e+05 2.1096568381301414e-14 3.4563570491965947e+05 7.2688237862680922e+05 1.3257806329386956e+04 -999 2.25851747e-01 4.057470158e-01 -1.01949378e-01
 40 5 752103 7.7206556502231548e+05 4.0708935067873698e+05 2.1052599650230193e-14 3.5379930813473603e+05 8.1920638794659846e+05 1.2656297826544633e+04 -999 2.25979858e-01 4.027798347e-01 -1.01996655e-01
 41 5 752103 6.5102464887742500e+05 3.6738517804248515e+05 2.0818908578552182e-14 3.2294311180479091e+05 6.9986959176224901e+05 1.1882036214708520e+04 -999 2.26086536e-01 4.000201886e-01 -1.02034850e-01
 42 5 752103 5.3437561553122965e+05 3.1574834893652168e+05 2.0533714432782363e-14 2.9225910669351293e+05 5.6190646454604936e+05 1.1178858435565551e+04 -999 2.26212690e-01 3.968307303e-01 -1.02080446e-01
 43 5 752103 4.9783082711598929e+05 2.8766265090231324e+05 2.0244511441638397e-14 2.7162542141875572e+05 5.0384438774852583e+05 1.0549080972258374e+04 -999 2.26355898e-01 3.932953851e-01 -1.02132610e-01
 44 5 752103 5.4270987588547054e+05 2.9313955164666916e+05 2.0044185914466573e-14 2.6691900802583672e+05 5.6039272330867162e+05 1.0001093639566599e+04 -999 2.26484496e-01 3.901950866e-01 -1.02179720e-01
 45 5 752103 5.9449533385691198e+05 3.2513380132203491e+05 1.9927265413306342e-14 2.6843807405111991e+05 6.3296156376513024e+05 9.5152008787763625e+03 -999 2.26590964e-01 3.876748152e-01 -1.02218861e-01
 46 5 752103 5.0330890495499014e+05 2.7772149677833362e+05 1.9688831253743139e-14 2.4568668350514819e+05 5.4101095699401351e+05 8.8881389904928819e+03 -999 2.26688070e-01 3.851468315e-01 -1.02253462e-01
 47 5 752103 4.1306782677690766e+05 2.4577419255832545e+05 1.9410199091313485e-14 2.2268614786299210e+05 4.3672159450211137e+05 8.3194512232105408e+03 -999 2.26800855e-01 3.822810749e-01 -1.02293992e-01
 48 5 752103 3.7571621764747525e+05 2.2395816435921879e+05 1.9135084021719038e-14 2.0503426765869104e+05 3.8203568874667183e+05 7.8135344470238988e+03 -999 2.26927503e-01 3.791435324e-01 -1.02339818e-01
 49 5 752103 3.9998418274689198e+05 2.2278102215030804e+05 1.8967237019346248e-14 1.9827443968553285e+05 4.0979931636482303e+05 7.3740113796956530e+03 -999 2.27046658e-01 3.762653922e-01 -1.02383165e-01
 50 5 752103 4.3685109538172599e+05 2.3791962032613956e+05 1.8891724558675358e-14 1.9752007729724402e+05 4.5882925198369933e+05 6.9845498764799322e+03 -999 2.27151626e-01 3.737821524e-01 -1.02421543e-01
 51 5 752103 3.7406870192550280e+05 2.0970201508764710e+05 1.8689621449702332e-14 1.8088866475296664e+05 3.9968042888028460e+05 6.4759144094318426e+03 -999 2.27241337e-01 3.714998475e-01 -1.02453445e-01
 52 5 752103 3.0456439803973970e+05 1.8409352056245061e+05 1.8422196601151249e-14 1.6248254625128058e+05 3.2384064507575374e+05 6.0191617159184188e+03 -999 2.27351180e-01 3.687585685e-01 -1.02493012e-01
 53 5 752103 2.6898131874492433e+05 1.6629984173925966e+05 1.8143237453806318e-14 1.4699141041320993e+05 2.7616998308797035e+05 5.6183871492412090e+03 -999 2.27475795e-01 3.657180404e-01 -1.02538441e-01
 54 5 752103 2.7681172191781271e+05 1.6263460463683531e+05 1.7952075477045372e-14 1.3888797090773087e+05 2.8322228578662075e+05 5.2669590698358370e+03 -999 2.27596027e-01 3.628533854e-01 -1.02582793e-01
 55 5 752103 2.9554239763160114e+05 1.6970828769444057e+05 1.7853290573658923e-14 1.3529742155679743e+05 3.0907944668809109e+05 4.9346467891270950e+03 -999 2.27705196e-01 3.603045788e-01 -1.02623629e-01
 56 5 752103 2.5454971759858332e+05 1.5168999087446809e+05 1.7666751539058217e-14 1.2436818390598251e+05 2.7106915487737517e+05 4.5297318796536720e+03 -999 2.27793502e-01 3.580744780e-01 -1.02656959e-01
 57 5 752103 2.0771996777255586e+05 1.3468836890259743e+05 1.7431682406493295e-14 1.1181957486204513e+05 2.2197662086138080e+05 4.1705285574878035e+03 -999 2.27901764e-01 3.553876229e-01 -1.02698422e-01
 58 5 752103 1.7890979825984643e+05 1.2135836655506857e+05 1.7179032010596648e-14 1.0014665578320391e+05 1.8642758153395768e+05 3.8494976906725974e+03 -999 2.28028293e-01 3.523168514e-01 -1.02747549e-01
 59 5 752103 1.7648002007792177e+05 1.1601940958723148e+05 1.6999775795047572e-14 9.2766248217498796e+04 1.8189082013544149e+05 3.5572557805314582e+03 -999 2.28153286e-01 3.493601019e-01 -1.02796869e-01
 60 5 752103 1.8011893653121701e+05 1.1506181874794421e+05 1.6910381130882735e-14 8.8211598020902733e+04 1.8748966357514390e+05 3.3269727387643957e+03 -999 2.28266956e-01 3.467308331e-01 -1.02842760e-01
 61 5 752103 1.5609213801918074e+05 1.0589519283717852e+05 1.6724194632995539e-14 8.1617518132227560e+04 1.6522338949217999e+05 3.0065918536396607e+03 -999 2.28357315e-01 3.444617728e-01 -1.02880142e-01
 62 5 752103 1.2802416280090800e+05 9.6703303346931993e+04 1.6490897788154033e-14 7.3944515888924769e+04 1.3647724936473256e+05 2.7321477445599053e+03 -999 2.28467661e-01 3.417343162e-01 -1.02926276e-01
 63 5 752103 1.0754590341069180e+05 8.8447829244013003e+04 1.6223747462232899e-14 6.6202010667360941e+04 1.1278250230239512e+05 2.4929468228687933e+03 -999 2.28600252e-01 3.385271939e-01 -1.02982202e-01
 64 5 752103 1.0080656903586796e+05 8.3333784848001043e+04 1.6002614139582750e-14 6.0545433033128495e+04 1.0438775819181466e+05 2.2920644270061189e+03 -999 2.28733391e-01 3.353875103e-01 -1.03039184e-01
 65 5 752103 9.7694245813257643e+04 7.9962464647934670e+04 1.5855764913896814e-14 5.6464843828238074e+04 1.0117763514762036e+05 2.1221752025486676e+03 -999 2.28856507e-01 3.325432267e-01 -1.03093414e-01
 66 5 752103 8.5368402523938508e+04 7.5304775437140255e+04 1.5659034628421904e-14 5.2131215658085821e+04 8.9518018287479892e+04 1.8940963865717038e+03 -999 2.28947887e-01 3.301461878e-01 -1.03133502e-01
 67 5 752103 7.0624791095385299e+04 7.0255432950910908e+04 1.5419367768332626e-14 4.7005118381065084e+04 7.4410332018820438e+04 1.7054028360223879e+03 -999 2.29059881e-01 3.272185292e-01 -1.03182708e-01
 68 5 752103 5.8327235655676370e+04 6.5141118007566030e+04 1.5121976974018134e-14 4.1455867880171296e+04 6.0650812698792710e+04 1.5483947022168531e+03 -999 2.29195573e-01 3.236965128e-01 -1.03242238e-01
 69 5 752103 5.1961353197381657e+04 6.1120989869426230e+04 1.4863531101500503e-14 3.6891774475159909e+04 5.3347337029940638e+04 1.4208624632775450e+03 -999 2.29331097e-01 3.202008037e-01 -1.03302205e-01
 70 5 752103 4.7704932639969302e+04 5.7941858224605319e+04 1.4663592553448334e-14 3.3344988047775230e+04 4.8677401545345165e+04 1.3162136137888035e+03 -999 2.29454928e-01 3.169955943e-01 -1.03358885e-01
 71 5 752103 4.1818525735079849e+04 5.4901469105708013e+04 1.4435366027864477e-14 3.0362320320587292e+04 4.2902361547424247e+04 1.1739783119181002e+03 -999 2.29532695e-01 3.141122293e-01 -1.03388626e-01
 72 5 752103 3.4935186270152510e+04 5.1455166094607885e+04 1.4173024919564602e-14 2.6930362390357914e+04 3.5806335950205292e+04 1.0673514639612567e+03 -999 2.29623451e-01 3.105097374e-01 -1.03420814e-01
 73 5 752103 2.8865071590253530e+04 4.7784536193798645e+04 1.3836900498573491e-14 2.3305945485987802e+04 2.9295963998487328e+04 9.9440089404227047e+02 -999 2.29726270e-01 3.060830454e-01 -1.03452870e-01
 74 5 752103 2.5104041215162379e+04 4.4698785168793598e+04 1.3506958850378069e-14 2.0407579409568305e+04 2.5371561706544730e+04 9.4567800746385740e+02 -999 2.29819571e-01 3.016277111e-01 -1.03477101e-01
 75 5 752103 2.2620309154307808e+04 4.2214671143034422e+04 1.3241967995621713e-14 1.8305309818530939e+04 2.2927366743667822e+04 9.1423414943506054e+02 -999 2.29898076e-01 2.974130008e-01 -1.03494279e-01
 76 5 752103 1.9972085495279433e+04 3.9799950481094282e+04 1.7794639749078795e-14 1.6561401582602408e+04 2.0548342520587961e+04 8.7618412223956364e+02 -999 2.29915212e-01 2.928717466e-01 -1.03451256e-01
 77 5 752103 1.7371099672387631e+04 3.7083122394171682e+04 2.5954273359038198e-14 1.4872460280845395e+04 1.8277534090310986e+04 9.2258754276940897e+02 -999 2.29954870e-01 2.868864698e-01 -1.03388297e-01
 78 5 752103 1.5814409616218722e+04 3.4371196726024296e+04 3.1546411353888308e-14 1.3699803844612770e+04 1.7134255345612804e+04 1.0968241794444666e+03 -999 2.30060032e-01 2.793301295e-01 -1.03311401e-01
 79 5 752103 1.5532663932954130e+04 3.2299920052063080e+04 3.1957741285350219e-14 1.3246992048993521e+04 1.7252220825565302e+04 1.4402267164415503e+03 -999 2.30273750e-01 2.715502458e-01 -1.03255389e-01
 80 5 752103 1.5774771993793993e+04 3.0791883696065124e+04 2.8743983423951977e-14 1.3115119146616094e+04 1.7824508077924394e+04 2.0275194576659133e+03 -999 2.30626451e-01 2.637953196e-01 -1.03244395e-01
 81 5 752103 1.5294941219725764e+04 2.8422503759703814e+04 2.6029419497947634e-14 1.2099806656688112e+04 1.7626272616747148e+04 3.3942184549935655e+03 -999 2.31464292e-01 2.532510760e-01 -1.03366589e-01
 82 5 752103 1.5464840572862064e+04 2.6209197556666433e+04 2.3420633068415788e-14 1.1427377522822919e+04 1.7939703139350731e+04 1.1625369296476178e+04 -999 2.32948303e-01 2.378121156e-01 -1.03818412e-01
 83 5 752103 1.6131081540074954e+04 2.5725904589331443e+04 2.0927948692934803e-14 1.1353046456654994e+04 1.8529728289522533e+04 5.4367109900152187e+04 -999 2.34915116e-01 2.193832348e-01 -1.04904516e-01
 84 5 752103 1.6647794773171940e+04 2.7124931185677910e+04 1.8701687220338858e-14 1.1572980182193649e+04 1.8865403538528866e+04 1.5028163548637994e+05 -999 2.36800837e-01 2.004078181e-01 -1.06729590e-01
 85 5 752103 1.7265331702355365e+04 4.7366439371688146e+04 1.6832032813475015e-14 1.2374829829692335e+04 2.2257366952376262e+04 2.6533543574172491e+05 -999 2.37820180e-01 1.844904429e-01 -1.08833932e-01
 86 5 752103 1.4776020130435667e+04 2.1323769891952517e+04 1.3811910861276303e-14 1.0957475728789936e+04 1.6250078290412506e+04 5.6059390643722517e+05 -999 2.38542708e-01 1.554668669e-01 -1.13836850e-01
 87 5 752103 1.3072727960523041e+04 2.8620204715036311e+04 1.1393164059223841e-14 1.0775959453015254e+04 1.4508061537080499e+04 4.8649473776172736e+05 -999 2.35944060e-01 1.326806451e-01 -1.18260755e-01
 88 5 752103 1.2789543276922173e+04 5.4759818253022429e+04 1.0743589047836564e-14 9.7493446346743403e+03 1.4921086820678838e+04 5.8411059777261235e+05 -999 2.35452025e-01 1.303146430e-01 -1.18615951e-01
 89 5 752103 1.2679463960527861e+04 6.1585662443702371e+04 1.0571530368915996e-14 9.3125753610070096e+03 1.4592922853643060e+04 4.3918673630031536e+05 -999 2.35286499e-01 1.294825867e-01 -1.18727723e-01
 90 5 752103 1.2602055390363417e+04 7.5421475882615108e+04 1.0456157669490913e-14 9.3731694994362624e+03 1.5409888224449382e+04 4.3885274790680443e+05 -999 2.35161331e-01 1.288343905e-01 -1.18813300e-01
 91 5 752103 1.2414929262308582e+04 2.1531062179153487e+04 9.3702221560766175e-15 9.0723775076794027e+03 1.2989799091108331e+04 1.0143365231930882e+05 -999 2.34882031e-01 1.266154576e-01 -1.19173306e-01
 92 5 752103 1.2236497128161567e+04 2.0789553773429074e+04 8.6288717721004035e-15 7.9149076946105934e+03 1.2480525137292951e+04 6.9994985224291435e+04 -999 2.34564364e-01 1.243857127e-01 -1.19524567e-01
 93 5 752103 1.2209203623927628e+04 2.0809836023148560e+04 7.9996735798493002e-15 7.8246388175157927e+03 1.2328505619759017e+04 6.7579799769624558e+04 -999 2.34219311e-01 1.222502166e-01 -1.19863072e-01
 94 5 752103 1.2264384322830165e+04 2.0863022828115536e+04 7.5869360965464286e-15 7.7753123168692882e+03 1.2300228630401709e+04 6.8010075440601489e+04 -999 2.33843397e-01 1.202280114e-01 -1.20186133e-01
 95 5 752103 1.2317646341818534e+04 2.0873612720737692e+04 7.2546684587941562e-15 7.7502548538706251e+03 1.2302237587181689e+04 6.8389413271512429e+04 -999 2.33432079e-01 1.183234634e-01 -1.20490210e-01
 96 5 752103 1.1702809408263567e+04 2.0484478374378283e+04 2.2121815650298069e-13 7.2444956768456896e+03 1.1627618740127280e+04 6.9554961283711804e+04 -999 2.32002847e-01 1.137190132e-01 -1.21127641e-01
 97 5 752103 1.0890620344606848e+04 1.9679603512793954e+04 3.4688707850404030e-13 6.8820859678512279e+03 1.0821215991156037e+04 6.5888713361148155e+04 -999 2.30409609e-01 1.096450415e-01 -1.21542961e-01
 98 5 752103 1.0324564380686481e+04 1.8870883571648537e+04 4.0110941110638450e-13 6.7075158101603456e+03 1.0241421951532082e+04 6.0863774687784433e+04 -999 2.29026046e-01 1.064817598e-01 -1.21714667e-01
 99 5 752103 1.0080725083053641e+04 1.7952086722814107e+04 4.2778047877260906e-13 6.5706977382287614e+03 9.9087650954169294e+03 5.6903582117528269e+04 -999 2.27610007e-01 1.032209962e-01 -1.21755180e-01
 100 5 752103 9.8717595750065848e+03 1.7445041147691216e+04 4.2670822955483651e-13 6.3889961074195926e+03 9.6706098064526286e+03 4.9724094910931832e+04 -999 2.27146390e-01 1.020015092e-01 -1.21716158e-01
 101 5 752103 9.3804863068649593e+03 1.5925944334495642e+04 3.3354106372953453e-13 5.9943531684506697e+03 9.1075402256433481e+03 4.6383874030773761e+04 -999 2.26229870e-01 9.900635445e-02 -1.21563319e-01
 102 5 752103 9.0635466936629455e+03 1.4511968463814832e+04 2.5538528112701963e-13 5.7167862793424347e+03 8.7110010609670517e+03 3.8312846289256762e+04 -999 2.25924737e-01 9.625280346e-02 -1.21365527e-01
 103 5 752103 8.8828620720004456e+03 1.3610730682248794e+04 2.2012183826820724e-13 5.6570503766569209e+03 8.4986090640070615e+03 3.0005393106895630e+04 -999 2.26271620e-01 9.456019733e-02 -1.21249797e-01
 104 5 752103 8.7767944009416187e+03 1.2936209322326353e+04 1.8707973273569942e-13 5.7472555868366217e+03 8.3771405234489812e+03 2.5846911062366587e+04 -999 2.26948619e-01 9.325156034e-02 -1.21204251e-01
 105 5 752103 8.7444413712590540e+03 1.2406981045693195e+04 2.0722115894945653e-13 5.9801547358656580e+03 8.3424054074501491e+03 2.3236295974628680e+04 -999 2.27915828e-01 9.210627380e-02 -1.21228278e-01
 106 5 752103 8.1384129785836330e+03 1.1549540632535003e+04 1.6761592666954309e-13 6.5004509734416069e+03 7.7710807228452250e+03 2.0976339175335575e+04 -999 2.30799517e-01 8.994593284e-02 -1.21543491e-01
 107 5 752103 8.1641662115891768e+03 1.1348533048615060e+04 1.5208742360106377e-13 7.1602066647402071e+03 7.7643298528125952e+03 1.9070036951915248e+04 -999 2.34908602e-01 8.813040781e-02 -1.22310713e-01
 108 5 752103 8.4676243742669740e+03 1.1773920987215910e+04 1.5069037118998151e-13 7.8576307357833903e+03 8.0661740818215521e+03 2.7260984114700612e+04 -999 2.40142451e-01 8.651838932e-02 -1.23601475e-01
 109 5 752103 8.9668549281140404e+03 1.2840351205372857e+04 2.3271329022387597e-13 8.2945570168748345e+03 8.6265974588040808e+03 5.1786597184122082e+04 -999 2.46447023e-01 8.502754117e-02 -1.25454657e-01
 110 5 752103 9.8102689561890966e+03 1.4903176980190779e+04 2.2697442138303844e-13 8.4693121771115093e+03 9.9029655689253050e+03 8.5033986113609921e+04 -999 2.53662477e-01 8.365428207e-02 -1.27826218e-01
 111 5 752103 9.1812196754498345e+03 1.3262552284859037e+04 1.9698286839689412e-13 8.1925678146989721e+03 9.0587946165011672e+03 1.2343404447378099e+05 -999 2.61022734e-01 8.251778740e-02 -1.30427674e-01
 112 5 752103 9.1578995431941439e+03 1.5747664255451626e+04 2.6374613295353934e-13 8.1203748340442671e+03 9.3711860847036733e+03 2.0316964172982215e+05 -999 2.68828031e-01 8.150952104e-02 -1.33365071e-01
 113 5 752103 9.0775202658834132e+03 2.3573436313116053e+04 2.9756922879046783e-13 8.0356948476808557e+03 1.1001676727854086e+04 3.3546849017023662e+05 -999 2.72978485e-01 8.103613541e-02 -1.35018438e-01
 114 5 752103 8.8983318261109980e+03 2.8899628504711716e+04 3.0993316619804349e-13 8.0847761470399519e+03 1.3170586073572102e+04 4.7538061011301744e+05 -999 2.74685436e-01 8.085207468e-02 -1.35715992e-01
 115 5 752103 8.7990710402618006e+03 2.6605675254278318e+04 3.1546626558781321e-13 8.0153648075693854e+03 1.3103763630048012e+04 2.7929467911090370e+05 -999 2.75553123e-01 8.075917744e-02 -1.36073911e-01
 116 5 752103 8.6446562090347470e+03 1.2987496925794518e+04 2.6125204635210456e-13 7.5885207614129131e+03 8.5139058899191969e+03 3.3910912354441470e+05 -999 2.80817035e-01 8.018863913e-02 -1.38221263e-01
 117 5 752103 8.5146271393920761e+03 1.1885852558731285e+04 2.2409712479089855e-13 7.4479121187481051e+03 8.4435818225028434e+03 3.9420027308592608e+05 -999 2.86127171e-01 7.967586151e-02 -1.40451576e-01
 118 5 752103 8.3439381788163028e+03 1.6427561966297242e+04 2.0028196162553633e-13 7.9087724917976702e+03 1.5023796840962048e+04 3.4992089240680676e+05 -999 2.91367448e-01 7.919469724e-02 -1.42705613e-01
 119 5 752103 8.3019959586968180e+03 1.7905909989272935e+04 1.9804402021076333e-13 7.8885725952182811e+03 1.9351870181269063e+04 3.1924209567179927e+05 -999 2.91914818e-01 7.914322213e-02 -1.42945574e-01
 120 5 752103 8.2756263476216736e+03 1.8613046589151196e+04 1.9649222685691781e-13 7.8595407675137631e+03 1.9526577560901049e+04 3.1704815018009639e+05 -999 2.92262922e-01 7.910983194e-02 -1.43098438e-01
 121 5 752103 8.0518623210226388e+03 1.0269649283397604e+04 2.2019884744082872e-13 7.3334262014862952e+03 7.9266596809207795e+03 4.3990242661847075e+05 -999 2.98488088e-01 7.850578827e-02 -1.45849973e-01
 122 5 752103 7.8451495156703668e+03 9.5546944717897368e+03 2.8791112803284411e-13 7.2751577566109336e+03 7.6896375669154477e+03 4.0331200568125554e+05 -999 3.04423263e-01 7.787938142e-02 -1.48537455e-01
 123 5 752103 7.7460382223618217e+03 1.9421951379424107e+04 3.2769065482834948e-13 7.4772355101542844e+03 9.5690000470766336e+03 3.7522228924647794e+05 -999 3.09980028e-01 7.721435173e-02 -1.51121821e-01
 124 5 752103 7.7201033352051199e+03 2.1656336301921194e+04 3.2838363294490735e-13 7.3633233007211202e+03 1.0579755262079021e+04 2.7081623307711945e+05 -999 3.10533925e-01 7.713788896e-02 -1.51386688e-01
 125 5 752103 7.7051900647081884e+03 2.0639992483157333e+04 3.2885733758686427e-13 7.3291357894340408e+03 1.0518296272625012e+04 1.8549027853974927e+05 -999 3.10885767e-01 7.708844780e-02 -1.51555348e-01
 126 5 752103 7.5829134217226592e+03 8.6006727248964435e+03 2.9710804579925309e-13 7.3233990120787366e+03 7.4322936350814907e+03 1.7910896665378212e+05 -999 3.17108909e-01 7.620255767e-02 -1.54570353e-01
 127 5 752103 7.4970705133999527e+03 8.1025419133352780e+03 3.4234925761477039e-13 7.1150744978307175e+03 7.3535117937917794e+03 1.7092962705597596e+05 -999 3.22828511e-01 7.526064618e-02 -1.57427784e-01
 128 5 752103 7.4337276253710916e+03 1.2211087047601499e+04 4.5498447165147050e-13 6.9288576088718801e+03 7.9974255721411209e+03 1.5664207647003751e+05 -999 3.28053464e-01 7.426915799e-02 -1.60093681e-01
 129 5 752103 7.3782146281045934e+03 1.5008719585912191e+04 4.7559042160870806e-13 6.9257408776292823e+03 8.6762682032200773e+03 1.2813374085790399e+05 -999 3.28709751e-01 7.412994702e-02 -1.60431216e-01
 130 5 752103 7.3403782451116331e+03 1.7994955034499970e+04 4.8957730323745373e-13 6.9155830895067593e+03 8.9891192156285724e+03 1.0040064905701745e+05 -999 3.29127632e-01 7.404050225e-02 -1.60645894e-01
 131 5 752103 6.9862183128832376e+03 6.9996337528439471e+03 1.0124631482030052e-12 6.5495240628293614e+03 6.8842590496740449e+03 1.1574113857277551e+05 -999 3.35111243e-01 7.276388747e-02 -1.63737703e-01
 132 5 752103 6.6220324120442965e+03 6.2704356104957096e+03 1.3412411645333532e-12 6.2371194320988598e+03 6.4818424767886809e+03 1.1320912548159587e+05 -999 3.41057285e-01 7.148177413e-02 -1.66782583e-01
 133 5 752103 6.4354584565953819e+03 1.0081140032696847e+04 1.4866325548721362e-12 6.3373842687977822e+03 6.6921663680068013e+03 1.2165313801673928e+05 -999 3.47202593e-01 7.022826328e-02 -1.69862356e-01
 134 5 752103 6.3802905740381575e+03 1.2150160074575124e+04 1.4185132712769730e-12 5.9773113030777922e+03 7.3744196783395437e+03 9.9921613445693452e+04 -999 3.48082541e-01 7.006826563e-02 -1.70291561e-01
 135 5 752103 6.3444912225739199e+03 1.5174883465026571e+04 1.3966772006579887e-12 5.9302041843240686e+03 8.8071497853579149e+03 7.7755814023639992e+04 -999 3.48652020e-01 6.996600310e-02 -1.70568235e-01
 136 5 752103 6.0434841831058493e+03 5.4581378345764697e+03 4.5540631038736636e-12 5.5372871878586038e+03 6.0130341724427353e+03 1.0861127738578650e+05 -999 3.57690054e-01 6.847543484e-02 -1.74920498e-01
 137 5 752103 5.6829581391635775e+03 5.1622598755475610e+03 5.1608039095962396e-12 5.1689161905199408e+03 5.6307614191100756e+03 1.1504832659133704e+05 -999 3.67635197e-01 6.710374635e-02 -1.79524749e-01
 138 5 752103 5.6268299107137846e+03 1.0525063870634005e+04 6.3908642674078962e-12 5.7940737787334238e+03 6.0870208286050265e+03 1.1546383590421932e+05 -999 3.78477583e-01 6.582252709e-02 -1.84280420e-01
 139 5 752103 5.5751031207380647e+03 1.5153429315574363e+04 6.6623298956073360e-12 4.8691817821523828e+03 7.0907666787313010e+03 9.1144958495292391e+04 -999 3.80068415e-01 6.565823468e-02 -1.84926876e-01
 140 5 752103 5.5480877127581589e+03 1.3722547713275006e+04 7.2474835932747791e-12 4.8158267338572241e+03 6.8748490464026963e+03 6.7636449592078483e+04 -999 3.80888695e-01 6.557288294e-02 -1.85256086e-01
 141 5 752103 5.4197714036122252e+03 4.9990903113265658e+03 1.0644264429140736e-11 4.4437350430785400e+03 5.4509231032010093e+03 6.4178711369208111e+04 -999 3.95789592e-01 6.409400216e-02 -1.91081107e-01