TITLE = "005.01 ALPHA 3.25 GRIDLEVEL 2"

VARIABLES = "ITERATION"  "GRID_LEVEL"  "GRID_SIZE"  "CONTINUITY"  "MOMENTUMX"  "MOMENTUMY"  "MOMENTUMZ"  "ENERGY"  "TURB1"  "TURB2"  "CL_TOT"  "CD_TOT"  "CM_TOT"

DATASETAUXDATA ParticipantID   = "005"
DATASETAUXDATA SubmissionDate  = "10-31-2024"
DATASETAUXDATA Name            = "Jeffrey A. Housman"
DATASETAUXDATA Email           = "jeffrey.a.housman@nasa.gov"
DATASETAUXDATA Institution     = "NASA Ames Research Center"
DATASETAUXDATA SolverName      = "LAVA Curvilinear"
DATASETAUXDATA BasicAlgorithm  = "RANS"
DATASETAUXDATA TurbulenceModel = "SA-neg"
DATASETAUXDATA GridId          = "Multiblock"
DATASETAUXDATA Discretization  = "Finite difference"
DATASETAUXDATA Order           = "2"
DATASETAUXDATA DistanceCalc    = "Exact"
DATASETAUXDATA Notes           = " "

ZONE T = "005.01 - Alpha 3.25 - Grid Level 2"
AUXDATA Tstatic         = "271.0"
AUXDATA Deltat          = "-999"
AUXDATA GridFileName    = "ONERA-OAT15A_230mmChord_780mmSpan_upZ_2024_06_25-Structured_23mm_Level-2.x"
AUXDATA Misc            = " "
 0 2 119662 1.7549173031491094e+05 3.5950546132700919e+05 3.0557876717366771e-14 1.5387331827028582e+05 1.7833789582873715e+05 4.8678349889627757e+05 -999 8.21652979e-03 4.528966999e-01 -4.88703228e-03
 1 2 119662 2.3938721458602551e+05 2.8886242277285521e+05 2.7492546264707591e-14 1.2847202031193403e+05 2.3225844603075428e+05 3.1413614668819675e+05 -999 4.76770676e-02 4.471277699e-01 -2.14037279e-02
 2 2 119662 2.8823187139300600e+05 2.5859966792259703e+05 2.5161688770901849e-14 1.4244985194745634e+05 2.7592828818586591e+05 2.0248631312629057e+05 -999 9.09257974e-02 4.527077548e-01 -3.90996628e-02
 3 2 119662 3.3799928181251191e+05 2.3732982379276850e+05 2.3358436552540937e-14 1.6480458380712787e+05 3.2257094437429024e+05 1.2969825066277701e+05 -999 1.27938186e-01 4.626199279e-01 -5.50120122e-02
 4 2 119662 3.8845227600311779e+05 2.1910197975164771e+05 2.1954070373705565e-14 1.9105193949852890e+05 3.7369397128314793e+05 8.1894787916815010e+04 -999 1.59600242e-01 4.750407778e-01 -6.71780083e-02
 5 2 119662 4.3604716997558868e+05 2.1932150573762902e+05 2.0843106569265394e-14 2.2044110150561758e+05 4.2568559661831812e+05 4.2204910012242806e+04 -999 1.85294936e-01 4.880018203e-01 -7.65605225e-02
 6 2 119662 3.9798678982041107e+05 2.5696460699847378e+05 1.9964998514456479e-14 2.3246044736595894e+05 3.9053896217291284e+05 3.4163520674187872e+04 -999 2.03210801e-01 4.940287581e-01 -8.36499301e-02
 7 2 119662 3.9436856994504773e+05 2.7579220456996292e+05 1.9165982802198637e-14 2.3653908180184109e+05 3.8369630903310457e+05 2.8289275280658323e+04 -999 2.17231930e-01 4.954808464e-01 -8.96981584e-02
 8 2 119662 4.2897093059669115e+05 2.7352471102399350e+05 1.8596633632701627e-14 2.3311361308228603e+05 4.3142453632359143e+05 2.4269475096488528e+04 -999 2.27893133e-01 4.911478591e-01 -9.42933150e-02
 9 2 119662 4.4870721503784420e+05 2.5388389728404046e+05 1.8188647596586892e-14 2.3376129868092694e+05 4.5483615773316182e+05 2.1468436083634304e+04 -999 2.38092585e-01 4.833429111e-01 -9.82421737e-02
 10 2 119662 4.6396288924051297e+05 2.5069444385014632e+05 1.7987902982500430e-14 2.2757207062787397e+05 4.8056682431751268e+05 1.9204921792131528e+04 -999 2.45357741e-01 4.773337532e-01 -1.00842867e-01
 11 2 119662 3.8388657140233263e+05 2.1622277075725360e+05 1.7780079507279696e-14 2.0958436731425245e+05 3.9172720523230528e+05 1.7201136309928057e+04 -999 2.53960399e-01 4.699038250e-01 -1.03963880e-01
 12 2 119662 3.6268619701285305e+05 2.1828773096801192e+05 1.7634449264876656e-14 2.0165566978751126e+05 3.6498509565681271e+05 1.5629628353794553e+04 -999 2.60780632e-01 4.639622811e-01 -1.06403547e-01
 13 2 119662 3.4418476883212634e+05 1.9252883756648749e+05 1.7593241542675053e-14 1.9175028980809712e+05 3.4319088460114150e+05 1.4312054549897632e+04 -999 2.66140854e-01 4.588100511e-01 -1.08374770e-01
 14 2 119662 3.7622831849987857e+05 2.0111405121100639e+05 1.7600914570943178e-14 1.8946356300946392e+05 3.8733941654920066e+05 1.3165332213544090e+04 -999 2.69825812e-01 4.545980994e-01 -1.09804764e-01
 15 2 119662 3.4131515768883470e+05 1.6975867958208162e+05 1.7568133669764416e-14 1.7877022484028022e+05 3.4757585216263134e+05 1.2208477118347068e+04 -999 2.72425497e-01 4.510477079e-01 -1.10891216e-01
 16 2 119662 3.1824238836823258e+05 1.7704692574257019e+05 1.7458025710919855e-14 1.7143140008331861e+05 3.2460271853854717e+05 1.1167763284432636e+04 -999 2.74686345e-01 4.473315476e-01 -1.11900753e-01
 17 2 119662 2.8308562458533596e+05 1.6936007259124852e+05 1.7331786976014073e-14 1.5751914373818482e+05 2.8852841954670951e+05 1.0277125657485880e+04 -999 2.76961698e-01 4.432084319e-01 -1.12935690e-01
 18 2 119662 2.9368055844244553e+05 1.6467211305484441e+05 1.7224615216989982e-14 1.5398429873290291e+05 2.9877026423303050e+05 9.5016740522529362e+03 -999 2.79585055e-01 4.380213597e-01 -1.14109194e-01
 19 2 119662 2.6612321894347749e+05 1.4620830313549659e+05 1.7110407808301563e-14 1.4280759713999479e+05 2.7093892147915141e+05 8.8464552755081186e+03 -999 2.81135783e-01 4.345571715e-01 -1.14759051e-01
 20 2 119662 3.1054460445631912e+05 1.7155834306976743e+05 1.6992760179564486e-14 1.4835487122971553e+05 3.2571121077841142e+05 8.2769679926669469e+03 -999 2.82831894e-01 4.303384233e-01 -1.15430855e-01
 21 2 119662 2.5789967913682354e+05 1.5848729161622838e+05 1.6855543342394964e-14 1.3276365447994162e+05 2.7310331203991419e+05 7.6463015123405821e+03 -999 2.83953104e-01 4.267011477e-01 -1.15841460e-01
 22 2 119662 2.1695568237834796e+05 1.2990359103674623e+05 1.6691046905582614e-14 1.1951569923082598e+05 2.2200853746595903e+05 7.0763890943910428e+03 -999 2.85151702e-01 4.222659088e-01 -1.16267709e-01
 23 2 119662 1.9958830164443920e+05 1.2463446644324923e+05 1.6537867622540805e-14 1.1132121090374158e+05 2.0136619208491687e+05 6.5763895047086135e+03 -999 2.86108421e-01 4.182035490e-01 -1.16600682e-01
 24 2 119662 2.2672891308608514e+05 1.2723640970953630e+05 1.6416781296153262e-14 1.1056548692935359e+05 2.3590679095607763e+05 6.1412409811181733e+03 -999 2.86969425e-01 4.141801657e-01 -1.16896972e-01
 25 2 119662 2.0370690312114297e+05 1.0614689079927932e+05 1.6340918447994861e-14 1.0296414935753217e+05 2.1019703924696735e+05 5.7665228550401180e+03 -999 2.87530643e-01 4.113218765e-01 -1.17089313e-01
 26 2 119662 1.8250516474895281e+05 1.0722673714520781e+05 1.6193504234313978e-14 9.6243862927787632e+04 1.8938912513017381e+05 5.3186524084446919e+03 -999 2.88044378e-01 4.081700822e-01 -1.17260095e-01
 27 2 119662 1.5640286032940625e+05 1.0095639824600113e+05 1.6004690064212359e-14 8.6706973182599773e+04 1.6166644863617871e+05 4.9245211641662809e+03 -999 2.88615650e-01 4.044535312e-01 -1.17451760e-01
 28 2 119662 1.4682675893628495e+05 9.4478768361788490e+04 1.5806502378693460e-14 7.9802411750359635e+04 1.4949886746486215e+05 4.5799458571630539e+03 -999 2.89170378e-01 4.006087788e-01 -1.17641385e-01
 29 2 119662 1.5688523356358503e+05 9.1217537245946456e+04 1.5613946569310864e-14 7.7264675225879866e+04 1.6081853579539352e+05 4.2753675904498105e+03 -999 2.89660871e-01 3.969929887e-01 -1.17812384e-01
 30 2 119662 1.4898002906553284e+05 8.4957883975997145e+04 1.5479771021367239e-14 7.3043513024285508e+04 1.5550073965793740e+05 4.0137886766549364e+03 -999 2.89973442e-01 3.945461588e-01 -1.17922252e-01
 31 2 119662 1.2771519823744876e+05 7.9253820380263656e+04 1.5288007375663454e-14 6.6829381133688163e+04 1.3399538083987677e+05 3.7122992436895238e+03 -999 2.90278122e-01 3.916710391e-01 -1.18024794e-01
 32 2 119662 1.0668062597338707e+05 7.4956143481909909e+04 1.5048219655884527e-14 6.0028872872350134e+04 1.1058750446282252e+05 3.4373397627320196e+03 -999 2.90628544e-01 3.882535608e-01 -1.18142456e-01
 33 2 119662 9.8407152598420449e+04 7.0680042368384617e+04 1.4804352270326738e-14 5.4846627860001317e+04 9.9964348828329545e+04 3.1949967252816764e+03 -999 2.90964516e-01 3.848425170e-01 -1.18255315e-01
 34 2 119662 1.0712295866877302e+05 7.0478006543564159e+04 1.4583439206978909e-14 5.2866097339606386e+04 1.1075048342121168e+05 2.9831470075098059e+03 -999 2.91256519e-01 3.817515718e-01 -1.18353340e-01
 35 2 119662 1.0368919753296374e+05 6.4718390603279317e+04 1.4416649826873125e-14 5.0674407328733389e+04 1.0679665006270442e+05 2.8025187010601935e+03 -999 2.91470396e-01 3.793978345e-01 -1.18424698e-01
 36 2 119662 8.8828472251029700e+04 6.3444819742468331e+04 1.4215669425168543e-14 4.6288174699562573e+04 9.3475750145022801e+04 2.5917034558973073e+03 -999 2.91656509e-01 3.769046891e-01 -1.18482003e-01
 37 2 119662 7.1949683940796807e+04 5.8015008694173754e+04 1.3983710864531146e-14 4.1105688741104532e+04 7.5564808611961562e+04 2.4024320174090735e+03 -999 2.91870887e-01 3.740305340e-01 -1.18547990e-01
 38 2 119662 6.2997302894514702e+04 5.3029536220613976e+04 1.3707562244693600e-14 3.6743593606219532e+04 6.3932844708676610e+04 2.2302574763914445e+03 -999 2.92106990e-01 3.708701178e-01 -1.18620780e-01
 39 2 119662 6.5924645496687372e+04 5.1488334764184168e+04 1.3440270026518870e-14 3.4602958274479068e+04 6.7579984764034321e+04 2.0768116984297976e+03 -999 2.92329721e-01 3.678884163e-01 -1.18689755e-01
 40 2 119662 6.5563252017782332e+04 4.9940504209111015e+04 1.3246887309091236e-14 3.3197666596771000e+04 6.8136431280005665e+04 1.9457555059057884e+03 -999 2.92492585e-01 3.656913538e-01 -1.18740542e-01
 41 2 119662 5.5872294838792128e+04 4.7306280286259069e+04 1.3038084196091046e-14 3.0511084356728978e+04 5.9098693584647335e+04 1.7815128557584615e+03 -999 2.92634483e-01 3.633847336e-01 -1.18781755e-01
 42 2 119662 4.4532826371675728e+04 4.4535295469424360e+04 1.2778519723305094e-14 2.7415713082390375e+04 4.6958688368228628e+04 1.6351163551783764e+03 -999 2.92808345e-01 3.605954058e-01 -1.18832917e-01
 43 2 119662 3.8063568235727173e+04 4.1637442986444868e+04 1.2485519962455525e-14 2.4682697670310907e+04 3.8747982491568910e+04 1.5078308530894371e+03 -999 2.93001664e-01 3.575307375e-01 -1.18890532e-01
 44 2 119662 3.8094934190483778e+04 4.0220049960157732e+04 1.2216676027656724e-14 2.3147636801933142e+04 3.8879402855123131e+04 1.3996067794213948e+03 -999 2.93175725e-01 3.547880524e-01 -1.18943193e-01
 45 2 119662 3.9480382985784672e+04 4.0113814215654209e+04 1.1994039936111638e-14 2.2287222126126257e+04 4.1216741096781741e+04 1.2993219959933310e+03 -999 2.93322530e-01 3.524682423e-01 -1.18988534e-01
 46 2 119662 3.3695646133876144e+04 3.7686355030956525e+04 1.1775605051619429e-14 2.0838492556528308e+04 3.5577513849528572e+04 1.1760470121283938e+03 -999 2.93443078e-01 3.501777909e-01 -1.19023372e-01
 47 2 119662 2.7421440492122758e+04 3.5551162413333244e+04 1.1505753576907691e-14 1.9243703626313931e+04 2.8725356671918482e+04 1.0682924469874438e+03 -999 2.93589698e-01 3.474290651e-01 -1.19066430e-01
 48 2 119662 2.3245847892486021e+04 3.3677483137279662e+04 1.1208919841586709e-14 1.7722741952106000e+04 2.3514294407055328e+04 9.7547353656317500e+02 -999 2.93760159e-01 3.442648366e-01 -1.19117394e-01
 49 2 119662 2.2184079167173473e+04 3.2355936563982890e+04 1.0924619813071591e-14 1.6652973089348186e+04 2.2175296020519414e+04 8.9804221433410055e+02 -999 2.93922409e-01 3.412557493e-01 -1.19167166e-01
 50 2 119662 2.1928616985719444e+04 3.1502875911857929e+04 1.0667522809403195e-14 1.5901779612756300e+04 2.2124799470896582e+04 8.3189255609034649e+02 -999 2.94063543e-01 3.386063673e-01 -1.19212113e-01
 51 2 119662 1.9570501617289978e+04 3.0190675971234672e+04 1.0423200268384204e-14 1.5053187459007184e+04 1.9780630699315261e+04 7.4403552537243263e+02 -999 2.94171254e-01 3.359756081e-01 -1.19241389e-01
 52 2 119662 1.7066516461061459e+04 2.8802298736334797e+04 1.0138583902766258e-14 1.4077732971688683e+04 1.7070334133585286e+04 6.7185632633367902e+02 -999 2.94297930e-01 3.328037182e-01 -1.19274594e-01
 53 2 119662 1.5220106354734860e+04 2.7385226894381085e+04 9.7989579082572940e-15 1.3040487217982840e+04 1.4955151936304177e+04 6.1249267635063643e+02 -999 2.94439912e-01 3.290886174e-01 -1.19309577e-01
 54 2 119662 1.4289579754984759e+04 2.6194762691406228e+04 9.4552739694486071e-15 1.2145911459808503e+04 1.4010592717997157e+04 5.6353081769930009e+02 -999 2.94569445e-01 3.254372605e-01 -1.19338664e-01
 55 2 119662 1.3728694959009481e+04 2.5242706826217585e+04 9.1760436916957599e-15 1.1417346098044914e+04 1.3598819143404482e+04 5.2257160493807964e+02 -999 2.94675809e-01 3.221170748e-01 -1.19360074e-01
 56 2 119662 1.2636611472616732e+04 2.4159306255248408e+04 8.8821292852733071e-15 1.0662913080556176e+04 1.2633216537943785e+04 4.7746785772381003e+02 -999 2.94733788e-01 3.185357866e-01 -1.19344109e-01
 57 2 119662 1.1529855270050022e+04 2.2936021386626766e+04 8.5416834004521441e-15 9.7986797842130654e+03 1.1679188391773041e+04 4.4401619663389630e+02 -999 2.94791174e-01 3.140314273e-01 -1.19308165e-01
 58 2 119662 1.0708994355242370e+04 2.1688292845117914e+04 8.1808776296155575e-15 8.9412774888624008e+03 1.1083641542678781e+04 4.2076561407456381e+02 -999 2.94836797e-01 3.087947662e-01 -1.19243605e-01
 59 2 119662 1.0262534221704529e+04 2.0636972157159867e+04 7.8349604370415820e-15 8.2762770644641569e+03 1.0905386531610699e+04 4.0373162214544965e+02 -999 2.94860985e-01 3.036804770e-01 -1.19157262e-01
 60 2 119662 1.0054046770827761e+04 1.9779160984216225e+04 7.5573834044130306e-15 7.8074651294549985e+03 1.0950130250315800e+04 3.8958430232096634e+02 -999 2.94870224e-01 2.988497502e-01 -1.19058541e-01
 61 2 119662 9.6440056567587581e+03 1.8810885450982518e+04 7.2530574733253051e-15 7.3484613435284273e+03 1.0808543399548507e+04 3.7509051646890100e+02 -999 2.94836409e-01 2.930199239e-01 -1.18874982e-01
 62 2 119662 9.4386501342732645e+03 1.7749304052591462e+04 6.9469503997392773e-15 7.0230244430566672e+03 1.0844003366356523e+04 3.7324994405370347e+02 -999 2.94820288e-01 2.853913239e-01 -1.18613262e-01
 63 2 119662 9.5406967848638742e+03 1.6771874303234443e+04 6.6589159282128195e-15 6.9670638201194015e+03 1.1099155879018246e+04 3.7972800151938679e+02 -999 2.94867542e-01 2.765984265e-01 -1.18300963e-01
 64 2 119662 9.7970698724740432e+03 1.6016870851283895e+04 6.4700910450118061e-15 7.1057139235062023e+03 1.1421499921671553e+04 3.8690501104644028e+02 -999 2.95017692e-01 2.680274614e-01 -1.18018164e-01
 65 2 119662 1.0045964792974668e+04 1.5407144778951475e+04 6.3206012728032629e-15 7.3115179490691553e+03 1.1684390578062070e+04 3.9427651008444991e+02 -999 2.95227831e-01 2.597584744e-01 -1.17820123e-01
 66 2 119662 1.0089442220459669e+04 1.4551104252296691e+04 6.1721253958218389e-15 7.1574761143539190e+03 1.1694887672056981e+04 4.0796418224029003e+02 -999 2.95841209e-01 2.486308104e-01 -1.17711320e-01
 67 2 119662 1.0094464917148600e+04 1.3700315167547406e+04 6.0906188959614721e-15 6.9862362521265577e+03 1.1571235851029907e+04 4.5426941054095192e+02 -999 2.97152767e-01 2.335921889e-01 -1.17851034e-01
 68 2 119662 9.9609638692429726e+03 1.3208387843395551e+04 5.9954058140358803e-15 6.7969245743237934e+03 1.1256448017493809e+04 5.3696223661706847e+02 -999 2.99122911e-01 2.183037636e-01 -1.18491564e-01
 69 2 119662 9.7093070802749371e+03 1.3015871591251525e+04 5.8584646131707161e-15 6.6589774945380541e+03 1.0814895576851261e+04 7.3198284002969206e+02 -999 3.01428988e-01 2.041858037e-01 -1.19677489e-01
 70 2 119662 9.3811520800810813e+03 1.3041583674288751e+04 5.6222210204684097e-15 6.6383911041705378e+03 1.0272088059204021e+04 1.1822249963703566e+03 -999 3.03795422e-01 1.908569035e-01 -1.21402502e-01
 71 2 119662 8.5421158676625946e+03 1.1917319573521414e+04 5.2790307949325303e-15 6.6227796591463557e+03 9.1046870177746405e+03 2.1152886668217207e+03 -999 3.06696385e-01 1.710603573e-01 -1.25001552e-01
 72 2 119662 7.6393250460886420e+03 1.1234632983613545e+04 4.8431878155244301e-15 6.6225906368782689e+03 7.9174071047176549e+03 3.6170586347184862e+03 -999 3.07014124e-01 1.531193852e-01 -1.28977791e-01
 73 2 119662 7.0022216919457996e+03 1.0992373976062179e+04 4.4015147205966833e-15 6.6644617164379233e+03 7.0663103942863754e+03 6.2204440970310106e+03 -999 3.03353724e-01 1.387000463e-01 -1.31927666e-01
 74 2 119662 6.7007207136700845e+03 1.0984725122397656e+04 4.0310217043627608e-15 6.2428502266787937e+03 6.6038297171993781e+03 9.2146115933002202e+03 -999 2.98521767e-01 1.312525032e-01 -1.32627131e-01
 75 2 119662 6.5503029895437076e+03 1.1050602942426809e+04 3.8200213991790015e-15 5.8336201395459966e+03 6.3963288041802780e+03 1.0083790057056885e+04 -999 2.95738402e-01 1.281456998e-01 -1.32555458e-01
 76 2 119662 5.6179194263488980e+03 1.0320070646857452e+04 3.6476100455309122e-15 5.0234882528863836e+03 5.5820657759671940e+03 1.0216457072008812e+04 -999 2.88033972e-01 1.213269542e-01 -1.31563479e-01
 77 2 119662 4.8813931374506483e+03 1.0571933965472839e+04 3.5354603651995222e-15 4.2277916516848491e+03 4.8639950129494218e+03 9.2274335759321402e+03 -999 2.77139023e-01 1.130032327e-01 -1.29047934e-01
 78 2 119662 4.4641704445191272e+03 1.0296034755508905e+04 3.3920888661375537e-15 3.6344166753218378e+03 4.4585717169056124e+03 6.9081471415560991e+03 -999 2.70791682e-01 1.079194807e-01 -1.26539270e-01
 79 2 119662 4.2502307064776915e+03 9.7206362077359390e+03 3.2536496753447113e-15 3.4142609426765116e+03 4.2479362493470435e+03 5.3452649765354936e+03 -999 2.68658826e-01 1.054433881e-01 -1.25217926e-01
 80 2 119662 4.2114439503327803e+03 9.0066047592949308e+03 3.2658404711331420e-15 3.3837526782746113e+03 4.1531501627316320e+03 4.6223040111886121e+03 -999 2.67034986e-01 1.023344306e-01 -1.23662458e-01
 81 2 119662 3.6937891446022991e+03 7.7933789072503478e+03 3.2937200986350866e-15 3.3743557063515864e+03 3.6380288760149278e+03 4.7694777538903581e+03 -999 2.68441453e-01 9.869070879e-02 -1.22436385e-01
 82 2 119662 3.5341981325195457e+03 6.6310370955886929e+03 3.5078677166591310e-15 3.5591154639558449e+03 3.4174775439630016e+03 5.0306599057781550e+03 -999 2.75022263e-01 9.374724848e-02 -1.21939528e-01
 83 2 119662 3.7300663744145190e+03 6.2071169200216382e+03 3.6371343326255208e-15 3.5372266164663292e+03 3.5602190719296168e+03 6.4756690141791987e+03 -999 2.86161147e-01 9.001841813e-02 -1.23538135e-01
 84 2 119662 4.0576819821592953e+03 6.4993921240113659e+03 3.5999592366754155e-15 3.5320509246928546e+03 3.8846511040280666e+03 1.0452019335518238e+04 -999 2.97890284e-01 8.721701798e-02 -1.26194011e-01
 85 2 119662 4.1862976071594649e+03 6.9566894051176823e+03 3.4659005785008054e-15 3.4904451305881544e+03 3.9847348635485691e+03 1.5245451936421414e+04 -999 3.06391882e-01 8.551798953e-02 -1.28538152e-01
 86 2 119662 3.7949728046259961e+03 5.8529081353577285e+03 3.6289977651439719e-15 3.1708357935849272e+03 3.8167192888899708e+03 3.3143653673663153e+04 -999 3.29308867e-01 8.197540605e-02 -1.35866647e-01
 87 2 119662 3.5977189409793923e+03 6.7349134264193272e+03 3.6794818865866699e-15 2.9542349060081633e+03 3.8442235103241160e+03 5.4792152665018439e+04 -999 3.51316793e-01 7.909104385e-02 -1.44179433e-01
 88 2 119662 3.3203268362312715e+03 9.1445320763397740e+03 3.4315572258838605e-15 2.7640321830206944e+03 4.6039298071014500e+03 1.0309793620963916e+05 -999 3.61830709e-01 7.781907954e-02 -1.48547326e-01
 89 2 119662 3.1155714910095494e+03 9.3629959381054978e+03 3.3966234024790811e-15 2.7183778866805956e+03 5.3584749028313063e+03 2.1345779827276836e+05 -999 3.67079025e-01 7.720918617e-02 -1.50755099e-01
 90 2 119662 2.9694359069208313e+03 8.6628245925252450e+03 3.8249443073867967e-15 2.6500837334508178e+03 5.3186260590378070e+03 1.9788427784236989e+05 -999 3.70386501e-01 7.683664229e-02 -1.52144176e-01
 91 2 119662 2.5885214954728308e+03 3.3561205987898102e+03 3.4960810764712773e-15 2.5069780251470870e+03 2.4982287004251921e+03 1.4634930521011466e+05 -999 3.86550878e-01 7.498823815e-02 -1.58942937e-01
 92 2 119662 2.4325813448885438e+03 2.7393582660939314e+03 3.7221957769277942e-15 2.4296563585729955e+03 2.3294399898863776e+03 6.1448744168765348e+04 -999 4.02486282e-01 7.328724319e-02 -1.65581317e-01
 93 2 119662 2.3322002746234471e+03 2.7381395059437068e+03 4.8677691281947036e-15 2.4312671388428130e+03 2.5111534249167103e+03 3.2484744985808280e+04 -999 4.18797324e-01 7.168304094e-02 -1.72096932e-01
 94 2 119662 2.2302153553499161e+03 3.4004908061072815e+03 7.8584921946370798e-15 2.4351420379604256e+03 4.1237097947032707e+03 2.8186982608068429e+04 -999 4.25754186e-01 7.105234845e-02 -1.74689826e-01
 95 2 119662 2.1875836850592646e+03 3.1372246246634795e+03 6.3557308563460928e-15 2.2915636231876852e+03 3.7837254722630933e+03 2.7153616042718597e+04 -999 4.28614819e-01 7.079641437e-02 -1.75717037e-01
 96 2 119662 1.9445356993853011e+03 2.2153919942781376e+03 3.5041843072252264e-15 1.7325256391586513e+03 1.8175385848683138e+03 3.0683662270699238e+04 -999 4.59588997e-01 6.854589895e-02 -1.85915531e-01
 97 2 119662 1.8428610098648703e+03 2.1029281373396821e+03 3.7457342856096296e-15 1.4139891627940458e+03 1.7291181222405573e+03 2.4965633162620124e+04 -999 4.93065973e-01 6.658043331e-02 -1.94988059e-01
 98 2 119662 1.8412916665711193e+03 2.3983247756081450e+03 3.9214401018676929e-15 1.1639043564260735e+03 1.8037959317137042e+03 2.1575492447363999e+04 -999 5.28269341e-01 6.496866754e-02 -2.02202145e-01
 99 2 119662 1.8235337829384007e+03 3.2342768475670823e+03 3.8720536394886600e-15 9.5493871483805481e+02 1.9836579801895950e+03 1.8507087810933761e+04 -999 5.46872995e-01 6.439393258e-02 -2.04863373e-01
 100 2 119662 1.8015552059972867e+03 3.2090317359312580e+03 3.9647045450715890e-15 8.5932447736062875e+02 2.0522190811238947e+03 1.4817019586065933e+04 -999 5.58857093e-01 6.414528798e-02 -2.06246659e-01
 101 2 119662 1.6215148231249418e+03 1.5390733534398428e+03 4.3519782351676453e-15 5.9474862813243806e+02 1.5798212216262602e+03 1.1591082181201298e+04 -999 6.07260799e-01 6.412394850e-02 -2.10827973e-01
 102 2 119662 1.5908081534262260e+03 1.3383155250808270e+03 4.6020366051370298e-15 4.3888139806542557e+02 1.5697916583765905e+03 9.3399890576202142e+03 -999 6.58052246e-01 6.512066907e-02 -2.12873137e-01
 103 2 119662 1.7518881426079795e+03 1.2740533061233423e+03 4.7024439321725766e-15 3.5061663772849226e+02 1.7553171073060801e+03 7.5280858269472301e+03 -999 7.07263996e-01 6.721875440e-02 -2.12610829e-01
 104 2 119662 2.1346269748219102e+03 1.3287076094596764e+03 4.8417823820057111e-15 3.0122475248203239e+02 2.1761214459786456e+03 6.1318015059126737e+03 -999 7.49709689e-01 6.988956932e-02 -2.10362775e-01
 105 2 119662 2.1859845585274275e+03 1.3250041968787089e+03 5.1505691300588874e-15 2.7274350864561262e+02 2.2214293140109721e+03 5.2593061679913035e+03 -999 7.71285735e-01 7.153562790e-02 -2.08338857e-01
 106 2 119662 1.3352648471025273e+03 1.0393821041500032e+03 5.4944774582230243e-15 2.3994824995872955e+02 1.3109895119143530e+03 4.5390185169296537e+03 -999 8.17485169e-01 7.498973931e-02 -2.02941475e-01
 107 2 119662 1.0036332169801586e+03 8.8002040229955367e+02 5.1901717007264456e-15 1.9614705418268076e+02 9.6325615483613842e+02 4.2886877133746402e+03 -999 8.53858509e-01 7.617300399e-02 -1.97206609e-01
 108 2 119662 8.4503099522921036e+02 7.9304987719969915e+02 4.5664653575753803e-15 1.8302743368904083e+02 7.8758837969508988e+02 4.1301388102877063e+03 -999 8.83109453e-01 7.515726733e-02 -1.92979083e-01
 109 2 119662 7.5062929940534912e+02 7.1721473588316439e+02 4.1081368310682253e-15 1.8161065286025971e+02 6.8287620106475174e+02 4.0994107189127626e+03 -999 9.08307164e-01 7.250163096e-02 -1.90246215e-01
 110 2 119662 7.1109514708824884e+02 6.8425375350814159e+02 4.0689661661384196e-15 1.7573547969055900e+02 6.3893764934906562e+02 4.3505720263795693e+03 -999 9.22569548e-01 7.032749927e-02 -1.89398435e-01
 111 2 119662 6.6531678025745634e+02 8.3985069991213823e+02 4.2405781718402811e-14 1.7875145447007108e+02 5.9479426947633078e+02 7.2787040528805483e+03 -999 9.38120021e-01 6.857644631e-02 -1.88927212e-01
 112 2 119662 6.3020174557081350e+02 9.0379916806838798e+02 7.9631739756501105e-14 1.7986533041560659e+02 5.6015842713953759e+02 8.7043267175274450e+03 -999 9.55193977e-01 6.683353721e-02 -1.88323728e-01
 113 2 119662 6.1456872763503281e+02 7.7316517235221022e+02 1.1058671567237045e-13 1.7775932259304017e+02 5.4103780358089352e+02 8.8324547447346013e+03 -999 9.73164080e-01 6.514130185e-02 -1.87542766e-01
 114 2 119662 6.1503477722458308e+02 7.2001396562014020e+02 1.2602643728025201e-13 1.7467305169364982e+02 5.4035468422518375e+02 9.3653279414710360e+03 -999 9.85174291e-01 6.401463900e-02 -1.86734955e-01
 115 2 119662 6.1849860389970490e+02 6.9319190191576195e+02 1.3561367570025283e-13 1.7266006069643055e+02 5.4407191061946389e+02 8.3335781693930658e+03 -999 9.94667908e-01 6.314563118e-02 -1.85994987e-01
 116 2 119662 5.9668051733380184e+02 7.5073992151173331e+02 1.2474761966485341e-13 1.8627220099482341e+02 5.2318206124918345e+02 7.7879303763383914e+03 -999 1.00168151e+00 6.237397280e-02 -1.85233082e-01
 117 2 119662 5.9668051733380184e+02 8.1306270237601143e+02 1.2475411543070056e-13 1.8991089875095312e+02 5.2489155049811484e+02 8.2048457578513917e+03 -999 1.00168151e+00 6.237397280e-02 -1.85233082e-01
 118 2 119662 6.0908606137627237e+02 8.9668803230557762e+02 1.2449924786816101e-13 2.0668492783624740e+02 5.4017563650333909e+02 9.4604542877785971e+03 -999 1.00647723e+00 6.199249710e-02 -1.84808792e-01
 119 2 119662 6.2143191659967238e+02 7.7979841046756553e+02 7.4518255493734560e-14 1.7879022257106789e+02 5.5217032795902423e+02 8.7455941105289367e+03 -999 1.01000410e+00 6.160963059e-02 -1.84718736e-01
 120 2 119662 6.7079140987286735e+02 7.0706302839232103e+02 5.0716630821824157e-14 1.7945522706332881e+02 6.0047186386700866e+02 6.8222045716899629e+03 -999 1.01350292e+00 6.129380549e-02 -1.84739233e-01
 121 2 119662 6.8386462866566819e+02 6.6222484375223462e+02 3.6388813933065615e-14 1.7637976988132161e+02 6.1041672834071608e+02 6.9849623742934846e+03 -999 1.01623914e+00 6.107010711e-02 -1.84759471e-01
 122 2 119662 6.9853629415218711e+02 6.2238376806485508e+02 2.7916379766004873e-14 1.7923053036770733e+02 6.2261138179638976e+02 7.6624383727943296e+03 -999 1.01949173e+00 6.081020467e-02 -1.84749760e-01
 123 2 119662 7.3336942239896246e+02 5.8967199231413770e+02 2.4420173797494823e-14 1.8210065298592514e+02 6.5397859691343876e+02 7.9068807919904857e+03 -999 1.02376951e+00 6.046679289e-02 -1.84656712e-01
 124 2 119662 7.7643444931740646e+02 5.7447091742146233e+02 2.3705785863068264e-14 1.8251384557902125e+02 6.9517631131810890e+02 8.0020041895388822e+03 -999 1.02626151e+00 6.022464684e-02 -1.84456477e-01
 125 2 119662 8.2044264569839675e+02 5.6678879485520827e+02 2.3708553829015392e-14 1.8055297663992386e+02 7.4151185039721349e+02 8.1006586119733292e+03 -999 1.02861987e+00 5.997582417e-02 -1.84201513e-01
 126 2 119662 8.0921392979926088e+02 5.5247822147045929e+02 2.1601356627151756e-14 1.7654488095416582e+02 7.2973567079229144e+02 8.0904070070304933e+03 -999 1.03179639e+00 5.962237781e-02 -1.83783490e-01
 127 2 119662 8.4490766763167949e+02 5.4158320829654372e+02 2.7896123451902687e-14 1.7320259204972470e+02 7.5977573467987645e+02 8.0400830477477575e+03 -999 1.03603234e+00 5.916951268e-02 -1.83215344e-01
 128 2 119662 8.9068308342617865e+02 5.3229015228348533e+02 3.2804669033844305e-14 1.5753950462609677e+02 8.1487063382065026e+02 7.9552233555604371e+03 -999 1.04012596e+00 5.879952521e-02 -1.82789479e-01
 129 2 119662 8.3785980709521766e+02 5.1943588416276987e+02 3.3508809121625218e-14 1.5143973480369073e+02 7.6805293314060668e+02 7.9224084865276254e+03 -999 1.04349657e+00 5.849418831e-02 -1.82388730e-01
 130 2 119662 8.9539207264655795e+02 5.3323986656737225e+02 3.2941630213387777e-14 1.6034431272859257e+02 8.0775742633089033e+02 7.9280798250358766e+03 -999 1.04669747e+00 5.818415073e-02 -1.81892832e-01
 131 2 119662 8.9666763248998450e+02 5.2457843198747366e+02 2.2173646946876644e-14 1.4991282622123632e+02 8.0925273299040771e+02 7.9153231731827782e+03 -999 1.04936409e+00 5.796254974e-02 -1.81499387e-01
 132 2 119662 8.6689768489949518e+02 5.2410780857840291e+02 2.0882016499263149e-14 1.4729026888310781e+02 7.8071187001885892e+02 7.9031806673623951e+03 -999 1.05300954e+00 5.767016704e-02 -1.80893014e-01
 133 2 119662 8.4548435039319531e+02 5.1787571646864524e+02 1.7881783946797140e-14 1.4480862908882040e+02 7.5273940369570710e+02 7.9032834295651865e+03 -999 1.05748916e+00 5.744667728e-02 -1.80408281e-01
 134 2 119662 9.0643300320897117e+02 5.1860215199419565e+02 1.7031760538145186e-14 1.4494801447154583e+02 8.3064327857817511e+02 7.8498573398844128e+03 -999 1.06162364e+00 5.727275018e-02 -1.79976248e-01
 135 2 119662 8.2631981542044809e+02 5.0431915759288268e+02 1.7148535495465587e-14 1.4342285849923834e+02 7.5788369990404772e+02 7.7647457632700125e+03 -999 1.06344389e+00 5.721078123e-02 -1.79800635e-01
 136 2 119662 7.8163408492984536e+02 4.9353662242961445e+02 1.6646521328050962e-14 1.5632282211955723e+02 7.0135670212188847e+02 7.7412393707711026e+03 -999 1.06686230e+00 5.715332446e-02 -1.79624512e-01
 137 2 119662 7.8661361007695166e+02 4.8565065599683049e+02 1.9801170538938015e-14 1.4450199531308402e+02 7.1743502217632636e+02 7.7053196952186054e+03 -999 1.06998993e+00 5.708851752e-02 -1.79398378e-01
 138 2 119662 6.8360303864331661e+02 4.6904628426831601e+02 1.9768767192855181e-14 1.4425271174012025e+02 6.1923443615519102e+02 7.6781322453343118e+03 -999 1.07254295e+00 5.698690873e-02 -1.79032595e-01
 139 2 119662 7.2869145217455775e+02 4.7155827886178940e+02 1.8309482855459299e-14 1.4716450432300402e+02 6.5266283028448800e+02 7.6397267548216159e+03 -999 1.07450860e+00 5.689324719e-02 -1.78652738e-01
 140 2 119662 7.7211180051761619e+02 4.7906449510531638e+02 1.6832377321173762e-14 1.3501392973878652e+02 7.0849083653506727e+02 7.6255066030618773e+03 -999 1.07676263e+00 5.679560252e-02 -1.78222164e-01
 141 2 119662 6.7592868682533776e+02 4.6221295826202612e+02 1.2095812033423235e-14 1.3548786524117872e+02 6.0188522853447205e+02 7.4730790999474020e+03 -999 1.07857527e+00 5.668063643e-02 -1.77766798e-01