TITLE = "005.01 ALPHA 3.50 GRIDLEVEL 2"

VARIABLES = "ITERATION"  "GRID_LEVEL"  "GRID_SIZE"  "CONTINUITY"  "MOMENTUMX"  "MOMENTUMY"  "MOMENTUMZ"  "ENERGY"  "TURB1"  "TURB2"  "CL_TOT"  "CD_TOT"  "CM_TOT"

DATASETAUXDATA ParticipantID   = "005"
DATASETAUXDATA SubmissionDate  = "10-31-2024"
DATASETAUXDATA Name            = "Jeffrey A. Housman"
DATASETAUXDATA Email           = "jeffrey.a.housman@nasa.gov"
DATASETAUXDATA Institution     = "NASA Ames Research Center"
DATASETAUXDATA SolverName      = "LAVA Curvilinear"
DATASETAUXDATA BasicAlgorithm  = "RANS"
DATASETAUXDATA TurbulenceModel = "SA-neg"
DATASETAUXDATA GridId          = "Multiblock"
DATASETAUXDATA Discretization  = "Finite difference"
DATASETAUXDATA Order           = "2"
DATASETAUXDATA DistanceCalc    = "Exact"
DATASETAUXDATA Notes           = " "

ZONE T = "005.01 - Alpha 3.50 - Grid Level 2"
AUXDATA Tstatic         = "271.0"
AUXDATA Deltat          = "-999"
AUXDATA GridFileName    = "ONERA-OAT15A_230mmChord_780mmSpan_upZ_2024_06_25-Structured_23mm_Level-2.x"
AUXDATA Misc            = " "
 0 2 119662 1.7720150941398804e+05 3.6234311813682277e+05 3.0557727573588214e-14 1.5670565373859592e+05 1.8075437704729490e+05 4.8719068201757665e+05 -999 8.81887160e-03 4.529710314e-01 -5.52182355e-03
 1 2 119662 2.4130581798560321e+05 2.9125395875791973e+05 2.7494268071751181e-14 1.3024117282611389e+05 2.3449536669463050e+05 3.1440873057404236e+05 -999 5.11710355e-02 4.475267019e-01 -2.27611604e-02
 2 2 119662 2.8944445286941651e+05 2.6061836565981031e+05 2.5166271891910324e-14 1.4444879850714566e+05 2.7732296833446110e+05 2.0267710694437876e+05 -999 9.77076283e-02 4.535792445e-01 -4.11349132e-02
 3 2 119662 3.3895048369501135e+05 2.3932704518041573e+05 2.3365184279341937e-14 1.6678797389875943e+05 3.2367134733133664e+05 1.2983633589033992e+05 -999 1.37680485e-01 4.638113790e-01 -5.78085244e-02
 4 2 119662 3.8920810770185071e+05 2.2071763288356556e+05 2.1960707041740083e-14 1.9260391664136422e+05 3.7452555889127066e+05 8.1997819928800483e+04 -999 1.71821889e-01 4.765442811e-01 -7.06494608e-02
 5 2 119662 4.3659832335455768e+05 2.2067323087646335e+05 2.0850245862776684e-14 2.2175265841156253e+05 4.2627663980822999e+05 4.2286195085368228e+04 -999 1.99373439e-01 4.897426288e-01 -8.04125878e-02
 6 2 119662 3.9854670748848002e+05 2.5782914044179360e+05 1.9971494143889875e-14 2.3358118952982491e+05 3.9112631660535588e+05 3.4210984084502168e+04 -999 2.18751504e-01 4.959252004e-01 -8.78119075e-02
 7 2 119662 3.9486766046717815e+05 2.7637262335802900e+05 1.9172996539088814e-14 2.3753237059319002e+05 3.8423870001474215e+05 2.8316447521302915e+04 -999 2.33898818e-01 4.974812351e-01 -9.40829262e-02
 8 2 119662 4.2921698321334017e+05 2.7396243641815032e+05 1.8601404484337155e-14 2.3401556998188456e+05 4.3165753830078716e+05 2.4298185518209313e+04 -999 2.45270335e-01 4.932113841e-01 -9.88296924e-02
 9 2 119662 4.4889021119541541e+05 2.5427632873477138e+05 1.8192267887353933e-14 2.3457355539494482e+05 4.5499760274350870e+05 2.1498870913962310e+04 -999 2.56066507e-01 4.854790242e-01 -1.02917233e-01
 10 2 119662 4.6398335794383968e+05 2.5097675422717960e+05 1.7991419904251096e-14 2.2829081044120094e+05 4.8052835524269845e+05 1.9225118491277462e+04 -999 2.63757390e-01 4.795305261e-01 -1.05618364e-01
 11 2 119662 3.8411995287668845e+05 2.1656200850356198e+05 1.7782210908822551e-14 2.1029548694078191e+05 3.9193737938424456e+05 1.7213996684198100e+04 -999 2.72887638e-01 4.721836729e-01 -1.08870037e-01
 12 2 119662 3.6285209004923271e+05 2.1851334751860495e+05 1.7635660594531720e-14 2.0229700517832974e+05 3.6513930405574484e+05 1.5639569090874986e+04 -999 2.80165944e-01 4.663111738e-01 -1.11415943e-01
 13 2 119662 3.4431948328783666e+05 1.9280469748233483e+05 1.7595243764359772e-14 1.9237188554201878e+05 3.4332267052746180e+05 1.4319173553147986e+04 -999 2.85914840e-01 4.612156232e-01 -1.13471661e-01
 14 2 119662 3.7623323005076323e+05 2.0128577892593408e+05 1.7601779752355632e-14 1.9001023247784254e+05 3.8730608505389577e+05 1.3171230577518090e+04 -999 2.89892921e-01 4.570348099e-01 -1.14963507e-01
 15 2 119662 3.4145027821881755e+05 1.7001890111580235e+05 1.7567281138379375e-14 1.7932623317708288e+05 3.4770241077237902e+05 1.2215296601249971e+04 -999 2.92703561e-01 4.535089514e-01 -1.16093603e-01
 16 2 119662 3.1831750169296324e+05 1.7719235919931269e+05 1.7457940551595268e-14 1.7190792795808573e+05 3.2466526502093143e+05 1.1174263201376145e+04 -999 2.95145365e-01 4.498106772e-01 -1.17142278e-01
 17 2 119662 2.8321872185048432e+05 1.6948891793430722e+05 1.7332555967262349e-14 1.5799883577766054e+05 2.8864254914195946e+05 1.0280272473385414e+04 -999 2.97594268e-01 4.457059254e-01 -1.18215176e-01
 18 2 119662 2.9364270155589969e+05 1.6475845026268880e+05 1.7225192438816867e-14 1.5437582646461783e+05 2.9870283129955293e+05 9.5057693959340340e+03 -999 3.00404813e-01 4.405379595e-01 -1.19430593e-01
 19 2 119662 2.6624111052154383e+05 1.4636721960096393e+05 1.7111901693079065e-14 1.4323923528829290e+05 2.7104832802688598e+05 8.8518048128722803e+03 -999 3.02054131e-01 4.370887900e-01 -1.20101683e-01
 20 2 119662 3.1035709691660531e+05 1.7150383037382472e+05 1.6994676835435748e-14 1.4865574507774151e+05 3.2545702834895538e+05 8.2808052836533006e+03 -999 3.03856806e-01 4.328862507e-01 -1.20795194e-01
 21 2 119662 2.5791842995771658e+05 1.5849197557211440e+05 1.6857449652915435e-14 1.3310921048929868e+05 2.7306248396402603e+05 7.6484019945428608e+03 -999 3.05046990e-01 4.292626420e-01 -1.21217330e-01
 22 2 119662 2.1700843556600375e+05 1.2996523382363499e+05 1.6693057165129901e-14 1.1982873617760342e+05 2.2205420389577618e+05 7.0774931508901582e+03 -999 3.06321278e-01 4.248401155e-01 -1.21654944e-01
 23 2 119662 1.9966315384959875e+05 1.2470123660109297e+05 1.6539655247341979e-14 1.1162981868311534e+05 2.0144640659747183e+05 6.5770215697102631e+03 -999 3.07339919e-01 4.207883927e-01 -1.21996383e-01
 24 2 119662 2.2669931843399513e+05 1.2726207769234010e+05 1.6419398203809676e-14 1.1082101548595278e+05 2.3585227128053288e+05 6.1416050094105749e+03 -999 3.08259757e-01 4.167681928e-01 -1.22300904e-01
 25 2 119662 2.0374694646809640e+05 1.0622914418591962e+05 1.6343495458217075e-14 1.0323754449562583e+05 2.1024329889136305e+05 5.7660393228131406e+03 -999 3.08859257e-01 4.139174961e-01 -1.22498441e-01
 26 2 119662 1.8251268002685567e+05 1.0722095048414434e+05 1.6195675174100339e-14 9.6469706925773586e+04 1.8939067944869451e+05 5.3184223759423521e+03 -999 3.09409201e-01 4.107710258e-01 -1.22673593e-01
 27 2 119662 1.5644685671863938e+05 1.0097224279392129e+05 1.6006453207575138e-14 8.6934193811946461e+04 1.6170035580754656e+05 4.9249201046537355e+03 -999 3.10021375e-01 4.070606498e-01 -1.22869971e-01
 28 2 119662 1.4684639595540176e+05 9.4475306957976252e+04 1.5807946251352199e-14 8.0005637223503189e+04 1.4950716612772003e+05 4.5808317432717640e+03 -999 3.10616463e-01 4.032206572e-01 -1.23064026e-01
 29 2 119662 1.5672236568341471e+05 9.1152791303754959e+04 1.5615639394654533e-14 7.7420472166562555e+04 1.6062037317753426e+05 4.2762089829740980e+03 -999 3.11142683e-01 3.996106921e-01 -1.23238719e-01
 30 2 119662 1.4903432243204486e+05 8.5026351606648532e+04 1.5480983358208958e-14 7.3238815951086828e+04 1.5555032209369072e+05 4.0140905640270244e+03 -999 3.11478380e-01 3.971659412e-01 -1.23350928e-01
 31 2 119662 1.2769615417009132e+05 7.9262273338800776e+04 1.5289904455434719e-14 6.6980176294276433e+04 1.3400014135154340e+05 3.7102566958014418e+03 -999 3.11805464e-01 3.942922729e-01 -1.23454873e-01
 32 2 119662 1.0658248392822537e+05 7.4906112412175411e+04 1.5047720144273616e-14 6.0139344534866068e+04 1.1050430470850489e+05 3.4335045625082857e+03 -999 3.12182096e-01 3.908735467e-01 -1.23574074e-01
 33 2 119662 9.8201579543154337e+04 7.0574262128605245e+04 1.4803667322209754e-14 5.4910203612153156e+04 9.9748450806681605e+04 3.1896040782764981e+03 -999 3.12543397e-01 3.874601199e-01 -1.23688240e-01
 34 2 119662 1.0672054458039672e+05 7.0321589127516287e+04 1.4583968624420276e-14 5.2879563019256035e+04 1.1031125698666414e+05 2.9770771464247241e+03 -999 3.12856650e-01 3.843740200e-01 -1.23787041e-01
 35 2 119662 1.0361267456811991e+05 6.4772059058641884e+04 1.4415293425716526e-14 5.0721924670556014e+04 1.0673475186306587e+05 2.7960785393426131e+03 -999 3.13087532e-01 3.820080465e-01 -1.23859395e-01
 36 2 119662 8.8715147663807074e+04 6.3415222559211834e+04 1.4218021137291346e-14 4.6314961556927294e+04 9.3390837589397372e+04 2.5837893847100704e+03 -999 3.13286848e-01 3.795193183e-01 -1.23916427e-01
 37 2 119662 7.1753817318224392e+04 5.7970728072921826e+04 1.3982036540025670e-14 4.1108297973606932e+04 7.5405143804940642e+04 2.3932727417154961e+03 -999 3.13517312e-01 3.766390297e-01 -1.23982384e-01
 38 2 119662 6.2624590549267799e+04 5.2927992430258455e+04 1.3708704217136775e-14 3.6705349294373373e+04 6.3584444409135474e+04 2.2199290327896647e+03 -999 3.13770560e-01 3.734783825e-01 -1.24055066e-01
 39 2 119662 6.5625818707431041e+04 5.1451139341462447e+04 1.3434098334473834e-14 3.4520837906483684e+04 6.7315006269879028e+04 2.0651684563022163e+03 -999 3.14012443e-01 3.704586923e-01 -1.24124950e-01
 40 2 119662 6.5151537335324116e+04 4.9662634464833180e+04 1.3242120629067221e-14 3.3099340190782736e+04 6.7610592449984208e+04 1.9334309416953522e+03 -999 3.14188432e-01 3.682442141e-01 -1.24176303e-01
 41 2 119662 5.5501498132987552e+04 4.7195861932578577e+04 1.3031358645530697e-14 3.0412298630509355e+04 5.8682107768412199e+04 1.7685694543643378e+03 -999 3.14342060e-01 3.659186465e-01 -1.24217607e-01
 42 2 119662 4.4267267652898867e+04 4.4447556488244394e+04 1.2771555622252131e-14 2.7343350171494298e+04 4.6693886478823566e+04 1.6225323047648869e+03 -999 3.14527985e-01 3.631426131e-01 -1.24268341e-01
 43 2 119662 3.7711050310122941e+04 4.1513509299962119e+04 1.2473365487006580e-14 2.4580250087715554e+04 3.8389278131338804e+04 1.4953506199991391e+03 -999 3.14738932e-01 3.600305759e-01 -1.24326775e-01
 44 2 119662 3.7738373046453846e+04 4.0025336771019480e+04 1.2203163452092888e-14 2.3028092537027700e+04 3.8522401117965113e+04 1.3871222724513632e+03 -999 3.14929052e-01 3.572419802e-01 -1.24380443e-01
 45 2 119662 3.8740093262693466e+04 3.9708699027108654e+04 1.1975724471718524e-14 2.2139738447375345e+04 4.0384151281723869e+04 1.2867080628349063e+03 -999 3.15087055e-01 3.549151736e-01 -1.24426214e-01
 46 2 119662 3.3209733549871780e+04 3.7435254485257959e+04 1.1760164077779248e-14 2.0719776092122316e+04 3.4999686283675779e+04 1.1637240065135047e+03 -999 3.15216882e-01 3.526198403e-01 -1.24461005e-01
 47 2 119662 2.7061239962174568e+04 3.5380500213440246e+04 1.1489166068781785e-14 1.9129475289514725e+04 2.8299124358122725e+04 1.0563382156456209e+03 -999 3.15376624e-01 3.498336672e-01 -1.24504576e-01
 48 2 119662 2.2980835511209807e+04 3.3532132795572594e+04 1.1188870265281808e-14 1.7617181080854556e+04 2.3224504130643898e+04 9.6438831789893163e+02 -999 3.15560922e-01 3.466493872e-01 -1.24555935e-01
 49 2 119662 2.1910477866954974e+04 3.2207175060561000e+04 1.0905678107062416e-14 1.6555272930523097e+04 2.1901011827172755e+04 8.8765008942603936e+02 -999 3.15734038e-01 3.436557618e-01 -1.24605726e-01
 50 2 119662 2.1594599730423193e+04 3.1298911374788036e+04 1.0643906955111806e-14 1.5798583837191425e+04 2.1739710500207380e+04 8.2185745734440491e+02 -999 3.15885148e-01 3.410041825e-01 -1.24651165e-01
 51 2 119662 1.9321397030285938e+04 3.0028636603487623e+04 1.0404179362011813e-14 1.4958890009803510e+04 1.9491413951065617e+04 7.3486264575996529e+02 -999 3.16000826e-01 3.383726510e-01 -1.24680195e-01
 52 2 119662 1.6871870692666715e+04 2.8647280164169508e+04 1.0120266550819287e-14 1.3979855025013831e+04 1.6845949231910552e+04 6.6364977225256871e+02 -999 3.16138726e-01 3.351567350e-01 -1.24713461e-01
 53 2 119662 1.5075473235380323e+04 2.7244479753188578e+04 9.7793291850649442e-15 1.2945981859037698e+04 1.4799418160466032e+04 6.0519434354969451e+02 -999 3.16291679e-01 3.314213621e-01 -1.24748048e-01
 54 2 119662 1.4153982167907938e+04 2.6056753921150226e+04 9.4304626385100841e-15 1.2048471855474656e+04 1.3874560234537941e+04 5.5686652610816554e+02 -999 3.16431264e-01 3.277328310e-01 -1.24776804e-01
 55 2 119662 1.3600507910592576e+04 2.5103849882442155e+04 9.1511847351897049e-15 1.1317863334905100e+04 1.3476949856316593e+04 5.1666248595274885e+02 -999 3.16545073e-01 3.243785212e-01 -1.24797857e-01
 56 2 119662 1.2536130218051318e+04 2.4031027812035878e+04 8.8574109322682499e-15 1.0569538245762358e+04 1.2541590483887745e+04 4.7246143011945793e+02 -999 3.16605689e-01 3.207839874e-01 -1.24779425e-01
 57 2 119662 1.1458095803929964e+04 2.2816355317520960e+04 8.5159760837801788e-15 9.7143470546610151e+03 1.1619272705626410e+04 4.3977452230645162e+02 -999 3.16664752e-01 3.162580005e-01 -1.24739789e-01
 58 2 119662 1.0659480387133428e+04 2.1573587240656710e+04 8.1621385184922722e-15 8.8697429911151594e+03 1.1046995655709459e+04 4.1735892033560094e+02 -999 3.16709582e-01 3.109785923e-01 -1.24670034e-01
 59 2 119662 1.0230539177657069e+04 2.0527055849756252e+04 7.8144509184795547e-15 8.2154127979225959e+03 1.0883268525951495e+04 4.0106399674047560e+02 -999 3.16729352e-01 3.058186111e-01 -1.24577902e-01
 60 2 119662 1.0036575308287260e+04 1.9675609152797308e+04 7.5212803259304139e-15 7.7595683999399653e+03 1.0937775135697022e+04 3.8741042717011629e+02 -999 3.16731008e-01 3.009575535e-01 -1.24473667e-01
 61 2 119662 9.6446810891268287e+03 1.8709883564627082e+04 7.2277754282827864e-15 7.3127160661804155e+03 1.0811375032540571e+04 3.7390797541174607e+02 -999 3.16679947e-01 2.950660222e-01 -1.24280713e-01
 62 2 119662 9.4578622383906713e+03 1.7646879647995564e+04 6.9251721580290351e-15 7.0052529615012945e+03 1.0861473456297334e+04 3.7319576241660752e+02 -999 3.16636150e-01 2.873048310e-01 -1.24003294e-01
 63 2 119662 9.5677109652053477e+03 1.6677940793252066e+04 6.6530441294085560e-15 6.9691969598278602e+03 1.1118631120189206e+04 3.8047128735141803e+02 -999 3.16645058e-01 2.784316125e-01 -1.23673896e-01
 64 2 119662 9.8252564252235497e+03 1.5923545504847583e+04 6.4556708094184676e-15 7.1236533597063908e+03 1.1438774891851797e+04 3.8871397043593100e+02 -999 3.16751311e-01 2.697008553e-01 -1.23371305e-01
 65 2 119662 1.0066311889774624e+04 1.5326222617539872e+04 6.3051162096578861e-15 7.3324275890374593e+03 1.1690998280870983e+04 3.9640911638087573e+02 -999 3.16909763e-01 2.614228178e-01 -1.23160390e-01
 66 2 119662 1.0103386976607268e+04 1.4467509219892785e+04 6.1631102899174307e-15 7.1777814416816291e+03 1.1691617456086902e+04 4.1142920824477079e+02 -999 3.17446368e-01 2.500945438e-01 -1.23029536e-01
 67 2 119662 1.0098198028550038e+04 1.3635305428779819e+04 6.0792788995648121e-15 7.0079944573594039e+03 1.1554018030862688e+04 4.5916998869658204e+02 -999 3.18640627e-01 2.349584444e-01 -1.23144743e-01
 68 2 119662 9.9543056496989993e+03 1.3169280561679667e+04 5.9741303722418605e-15 6.8219382059141471e+03 1.1225400982222105e+04 5.4641004909721357e+02 -999 3.20475695e-01 2.195120124e-01 -1.23763759e-01
 69 2 119662 9.6898897638483468e+03 1.3000243865811583e+04 5.8434738086481468e-15 6.7008610642877647e+03 1.0766938783966792e+04 7.5588700198130118e+02 -999 3.22616674e-01 2.052885263e-01 -1.24931095e-01
 70 2 119662 9.3552235691860697e+03 1.3055640102301535e+04 5.6057460823111636e-15 6.7001409038573738e+03 1.0214215885279775e+04 1.2302970290522630e+03 -999 3.24762780e-01 1.919005686e-01 -1.26629959e-01
 71 2 119662 8.4989971363509594e+03 1.1914815115351357e+04 6.9569272846615313e-13 6.7119589463798020e+03 9.0324178241150221e+03 2.1989438055191963e+03 -999 3.27147249e-01 1.720007271e-01 -1.30139124e-01
 72 2 119662 7.6072170289288624e+03 1.1248862997064565e+04 2.0383043457581835e-12 6.7191579035318191e+03 7.8624241582559853e+03 3.7502232028519988e+03 -999 3.26691895e-01 1.543110977e-01 -1.33840757e-01
 73 2 119662 6.9935514429408067e+03 1.1039706071773893e+04 3.2405964110383627e-12 6.7499894249707331e+03 7.0394612235467766e+03 6.5051453334425960e+03 -999 3.22225374e-01 1.400608660e-01 -1.36374824e-01
 74 2 119662 6.6939884263046724e+03 1.1058831659550471e+04 3.5592032386649485e-12 6.2918009738905776e+03 6.5892027776858722e+03 9.3640874701431130e+03 -999 3.17207078e-01 1.330242721e-01 -1.36733627e-01
 75 2 119662 6.5485182525064611e+03 1.1135037695126739e+04 3.8858673064196465e-12 5.8810063935721682e+03 6.3845438514481921e+03 1.0035435791294680e+04 -999 3.14372672e-01 1.300060843e-01 -1.36533567e-01
 76 2 119662 5.6255013449121752e+03 1.0425610865424409e+04 4.2981930031221540e-12 5.0838154112972516e+03 5.5872227154206412e+03 1.0003243696379379e+04 -999 3.06517599e-01 1.232097865e-01 -1.35254683e-01
 77 2 119662 4.8948577281214557e+03 1.0696922013491687e+04 6.7870852643339923e-12 4.3136731247029857e+03 4.8756912212970992e+03 8.9665578232675398e+03 -999 2.95391451e-01 1.147608197e-01 -1.32326230e-01
 78 2 119662 4.4922435257013740e+03 1.0409653013638352e+04 6.2978163377926331e-12 3.7438730537559213e+03 4.4896038877321234e+03 6.6844981553822836e+03 -999 2.89406942e-01 1.099031603e-01 -1.29704692e-01
 79 2 119662 4.2712944099115848e+03 9.8220585342815320e+03 5.9101018461478759e-12 3.4994552104790196e+03 4.2716781520317827e+03 5.1747092029035675e+03 -999 2.87111768e-01 1.072301899e-01 -1.28159081e-01
 80 2 119662 4.2181328973926020e+03 9.1568519023845256e+03 5.1078378858279232e-12 3.4353552080491954e+03 4.1743209325950720e+03 4.5214213194435106e+03 -999 2.85691462e-01 1.044141533e-01 -1.26615710e-01
 81 2 119662 3.7236439989132650e+03 7.9239794470245424e+03 6.0550230023727239e-12 3.4079868691608831e+03 3.6737715569652555e+03 4.7280146246797658e+03 -999 2.86932306e-01 1.006730266e-01 -1.25098122e-01
 82 2 119662 3.5365905661986371e+03 6.7303943987087850e+03 8.1885108660425115e-12 3.5879420186130460e+03 3.4300896591562182e+03 5.0517372577662409e+03 -999 2.93151595e-01 9.577820343e-02 -1.24188110e-01
 83 2 119662 3.6727826733692691e+03 6.2243805047332980e+03 8.5269603461049826e-12 3.5649706040608517e+03 3.5066645040487706e+03 6.2747976215342742e+03 -999 3.03741026e-01 9.210777358e-02 -1.25306749e-01
 84 2 119662 3.9842045978913179e+03 6.3625550254004465e+03 1.0012038338730821e-11 3.5290101309270285e+03 3.8070177353018362e+03 8.7117975359997163e+03 -999 3.15099619e-01 8.932026629e-02 -1.27518110e-01
 85 2 119662 4.1070829331577588e+03 6.6979170613036613e+03 1.1272679316294567e-11 3.4861868936529909e+03 3.9131570473750958e+03 1.3484701009007962e+04 -999 3.23100556e-01 8.768119256e-02 -1.29482655e-01
 86 2 119662 3.7133076867132559e+03 5.7081076763983756e+03 1.7674989581827343e-11 3.2195825238425459e+03 3.7088108873775914e+03 2.5140721527119516e+04 -999 3.45371329e-01 8.414073909e-02 -1.35917716e-01
 87 2 119662 3.6300050553933302e+03 6.1749866183495669e+03 1.7023159562119000e-11 3.0248057175696367e+03 3.7700387391480926e+03 4.8303166363088072e+04 -999 3.67993191e-01 8.115385825e-02 -1.43749831e-01
 88 2 119662 3.4355322679694423e+03 7.6907285137204044e+03 1.9089542514122674e-11 2.8239395414001083e+03 4.3622844392422885e+03 8.6391161169841129e+04 -999 3.81618340e-01 7.955199842e-02 -1.49036269e-01
 89 2 119662 3.2083378099384713e+03 8.1322894854722535e+03 2.1928984044792622e-11 2.7311193332239859e+03 5.0633744052084103e+03 1.2756144129275309e+05 -999 3.88341787e-01 7.881115099e-02 -1.51713859e-01
 90 2 119662 3.0381325860766342e+03 7.9133479031455045e+03 2.1051780685812296e-11 2.6593357088441226e+03 5.3499231908996817e+03 1.1437965045769540e+05 -999 3.92592726e-01 7.836146538e-02 -1.53406848e-01
 91 2 119662 2.5827542626380150e+03 3.3356901187933240e+03 1.8666082446373240e-11 2.4942613551747063e+03 2.4801579733622393e+03 8.1411758394400851e+04 -999 4.10540319e-01 7.641661653e-02 -1.60563540e-01
 92 2 119662 2.3790816827597632e+03 2.7282673974075005e+03 1.5371168709902667e-11 2.3551089466662897e+03 2.2627545694631431e+03 4.3096498099902696e+04 -999 4.28440590e-01 7.469104884e-02 -1.67589413e-01
 93 2 119662 2.2700493119868211e+03 2.7721533120421741e+03 1.2834446121122102e-11 2.2986065264435829e+03 2.6778457506071095e+03 2.7701184314344882e+04 -999 4.46961654e-01 7.312263911e-02 -1.74509313e-01
 94 2 119662 2.1949603806041478e+03 2.9504609903863070e+03 1.3090413332786983e-11 2.2136448588744074e+03 3.5149275475720001e+03 2.5574440618160243e+04 -999 4.52060866e-01 7.274376466e-02 -1.76273099e-01
 95 2 119662 2.1492018828671839e+03 2.9122392432789748e+03 1.3030878952119113e-11 2.1811230352848092e+03 3.4429921230995610e+03 2.5303963584688874e+04 -999 4.55319173e-01 7.250636150e-02 -1.77371196e-01
 96 2 119662 1.8683076001055194e+03 2.1463631010207041e+03 1.4919405949244118e-11 1.5914147709037213e+03 1.7446917415510320e+03 2.4814546145633783e+04 -999 4.93219515e-01 7.037678063e-02 -1.88797553e-01
 97 2 119662 1.7556568295336733e+03 2.0261927550027394e+03 1.8361774103743456e-11 1.2439218733837413e+03 1.6454991109761136e+03 2.2484959961068009e+04 -999 5.34336061e-01 6.872953429e-02 -1.98640084e-01
 98 2 119662 1.7630147738047312e+03 2.0349331359427367e+03 1.2898341455929175e-11 9.5012543037050227e+02 1.7034328873068735e+03 1.9300348318872831e+04 -999 5.77492931e-01 6.766517071e-02 -2.06023065e-01
 99 2 119662 1.9565990815883572e+03 3.0449236619217472e+03 8.2999607370957996e-12 7.9752307784734387e+02 2.0487133295121857e+03 1.4919022594820164e+04 -999 6.19880757e-01 6.735352234e-02 -2.10616605e-01
 100 2 119662 1.9742072396843732e+03 2.8791010719180017e+03 6.5437778404876457e-12 6.7813992828975040e+02 2.0984686789711468e+03 1.2267468037805615e+04 -999 6.38548820e-01 6.760269180e-02 -2.11614038e-01
 101 2 119662 1.6124181727362300e+03 1.4129168988938284e+03 7.4733072370171085e-12 4.9241561416952038e+02 1.5777483823464572e+03 9.0388413084283402e+03 -999 6.97183628e-01 6.979209539e-02 -2.14038008e-01
 102 2 119662 1.4336984943940981e+03 1.2076673358218877e+03 5.9310619442438293e-12 3.4972186932161799e+02 1.4035021927847724e+03 6.9384463551353783e+03 -999 7.51794536e-01 7.268463288e-02 -2.13074197e-01
 103 2 119662 1.4074527175662004e+03 1.1104882350930154e+03 4.0555260780916174e-12 2.8044251728851384e+02 1.3815559505874207e+03 5.6698363495629164e+03 -999 7.99746979e-01 7.591560365e-02 -2.09449395e-01
 104 2 119662 1.4771483051739990e+03 1.0709775191121653e+03 3.0990484144425267e-12 2.3764457939520534e+02 1.4452787263349605e+03 4.9592412049273034e+03 -999 8.40224518e-01 7.894207462e-02 -2.04514541e-01
 105 2 119662 1.4666988732049899e+03 1.0441132488592764e+03 2.6884008876378179e-12 2.1863504736540978e+02 1.4230061945318580e+03 4.5673185220462701e+03 -999 8.72115218e-01 8.092147730e-02 -1.99692294e-01
 106 2 119662 9.1834292627783520e+02 8.3453928340306709e+02 3.0175191675333381e-12 2.1445528206855741e+02 8.5885072888855609e+02 4.3997776722498911e+03 -999 9.16399623e-01 7.933587721e-02 -1.94310048e-01
 107 2 119662 7.5213867516789674e+02 7.4440763076128917e+02 3.0934268269570442e-12 1.8593183273675453e+02 6.7872964974472018e+02 4.3690947780909446e+03 -999 9.51417081e-01 7.556281191e-02 -1.92115373e-01
 108 2 119662 6.9747338849551659e+02 7.3456186068532111e+02 2.8753253367923605e-12 1.8121740287222605e+02 6.2068778398255711e+02 5.0697172067714009e+03 -999 9.74015164e-01 7.300418579e-02 -1.91457937e-01
 109 2 119662 6.7868007066856785e+02 7.6102656876032950e+02 2.7409543194934466e-12 1.8007487814296991e+02 6.0320783487519725e+02 6.7140119889322177e+03 -999 9.87444749e-01 7.156522841e-02 -1.90992248e-01
 110 2 119662 6.6747225701181696e+02 7.7646318265029640e+02 2.6337451583688288e-12 1.8000671597733810e+02 5.9372358822788283e+02 8.3047467415509745e+03 -999 9.98371086e-01 7.045633011e-02 -1.90488840e-01
 111 2 119662 6.4284432834124334e+02 9.7902399125165982e+02 2.3916905226784709e-12 1.8461479355077728e+02 5.7577951897412072e+02 1.2653261207569249e+04 -999 1.00897250e+00 6.975220021e-02 -1.90163270e-01
 112 2 119662 6.3060807977497336e+02 1.0390199190396033e+03 2.2692801177208488e-12 1.9036161018480252e+02 5.6470736361490901e+02 1.2139139809439592e+04 -999 1.02048779e+00 6.902219388e-02 -1.89755707e-01
 113 2 119662 6.2974178450753720e+02 9.6341605149498776e+02 2.2544535870016225e-12 1.9482099693057518e+02 5.5995866074492562e+02 1.8247086555182246e+04 -999 1.03216614e+00 6.828964383e-02 -1.89222144e-01
 114 2 119662 6.4576367038455055e+02 8.4680244243155460e+02 2.2842683355882283e-12 1.9182395178897619e+02 5.7245130567782098e+02 1.8002048486830376e+04 -999 1.04358983e+00 6.756751957e-02 -1.88556892e-01
 115 2 119662 6.7696120195215974e+02 9.6045558217418113e+02 2.2775330104056421e-12 1.9148824371921506e+02 6.0732810851922932e+02 1.3818222675599936e+04 -999 1.05195780e+00 6.697319644e-02 -1.87824944e-01
 116 2 119662 6.3799317972803908e+02 9.7222130821932137e+02 1.9669972956188545e-12 2.4777742164084324e+02 5.7129970579525207e+02 9.0196878854083370e+03 -999 1.05991530e+00 6.620300167e-02 -1.87192782e-01
 117 2 119662 6.3799317972803897e+02 1.0336605399738544e+03 1.9801630247475904e-12 2.5264499880777669e+02 5.7453339873145649e+02 7.6430500582102595e+03 -999 1.05991530e+00 6.620300167e-02 -1.87192782e-01
 118 2 119662 6.4586114510533832e+02 1.0994928082892998e+03 1.9825097367509234e-12 2.7370002895031871e+02 5.8712160635638986e+02 6.9795769966255129e+03 -999 1.06419316e+00 6.599230768e-02 -1.86922554e-01
 119 2 119662 6.5232327943018345e+02 8.9189089020871927e+02 1.3953814259867894e-12 2.2602032649950291e+02 5.8114165836280586e+02 7.7875899181166014e+03 -999 1.06581962e+00 6.581716001e-02 -1.86748658e-01
 120 2 119662 6.9723861190340290e+02 7.4994872851090861e+02 9.1853903367942551e-13 2.0167760250737314e+02 6.2041862862436540e+02 6.7954455561052582e+03 -999 1.06790674e+00 6.564099749e-02 -1.86605801e-01
 121 2 119662 7.2467921925754649e+02 6.8446154902462888e+02 6.3944592130316277e-13 1.8856800400517207e+02 6.4613934802172162e+02 7.1364112122876677e+03 -999 1.06998387e+00 6.550843399e-02 -1.86531577e-01
 122 2 119662 7.3338814857428918e+02 6.3629916040398484e+02 4.9984888173496876e-13 1.8101966708488180e+02 6.5401761289979743e+02 7.7822963850288897e+03 -999 1.07242394e+00 6.540914553e-02 -1.86551170e-01
 123 2 119662 7.3539797666229845e+02 5.9706251077836964e+02 4.4567177116982850e-13 1.7442311669459923e+02 6.5464394801569290e+02 8.1117139726239666e+03 -999 1.07573554e+00 6.533202662e-02 -1.86680526e-01
 124 2 119662 7.4107282728762948e+02 5.8237704627764344e+02 4.2944435509962080e-13 1.7188978274377348e+02 6.5877908048991958e+02 8.4022497858776605e+03 -999 1.07743754e+00 6.531272589e-02 -1.86778062e-01
 125 2 119662 7.5339777580698217e+02 5.7132368188753844e+02 4.1010167734317442e-13 1.7062605829658975e+02 6.6989016796508986e+02 8.5878621097923806e+03 -999 1.07929053e+00 6.528638269e-02 -1.86867120e-01
 126 2 119662 7.6368387534672161e+02 5.5928461554760520e+02 3.1094397281317368e-13 1.6772585761696197e+02 6.7799426786994798e+02 8.5133223545675555e+03 -999 1.08204155e+00 6.520904473e-02 -1.86886361e-01
 127 2 119662 7.9705625821812407e+02 5.5135497732881413e+02 3.0602552506735085e-13 1.6988773219165367e+02 7.1095348463422579e+02 8.3978704687186091e+03 -999 1.08520675e+00 6.504536925e-02 -1.86716462e-01
 128 2 119662 8.3801758012889161e+02 5.4594605959182115e+02 3.1196917381886339e-13 1.6936073634209657e+02 7.5537018885337648e+02 8.3319964577723385e+03 -999 1.08830860e+00 6.478940499e-02 -1.86298580e-01
 129 2 119662 8.5757876918353429e+02 5.4497902554685402e+02 3.0752145335127819e-13 1.6909265477003802e+02 7.7406788291696216e+02 8.2742705628337353e+03 -999 1.09077669e+00 6.447795213e-02 -1.85681217e-01
 130 2 119662 8.9059098439855495e+02 5.4822288249577309e+02 3.0159250976919934e-13 1.6761689217569275e+02 8.0528918307270135e+02 8.2398317940117122e+03 -999 1.09241819e+00 6.420580989e-02 -1.85096991e-01
 131 2 119662 8.6177961220580494e+02 5.3347046133759147e+02 2.1822366413323873e-13 1.6051751692562470e+02 7.7735437841393218e+02 8.3775821196424531e+03 -999 1.09406435e+00 6.399042926e-02 -1.84654019e-01
 132 2 119662 8.4077584267523810e+02 5.2479413740993346e+02 2.0684402763904897e-13 1.5632158290177202e+02 7.5646730287195282e+02 8.4014237034482776e+03 -999 1.09598724e+00 6.368631641e-02 -1.83987314e-01
 133 2 119662 9.0310962207558373e+02 5.3337433723568984e+02 2.0605843718154151e-13 1.5769614234891759e+02 8.1651613143147358e+02 8.3832705591154518e+03 -999 1.09889148e+00 6.331912006e-02 -1.83177409e-01
 134 2 119662 9.3345759548844364e+02 5.3213711077033213e+02 1.9668469819490999e-13 1.4923607393786074e+02 8.5664590719424825e+02 8.2650070795684787e+03 -999 1.10067879e+00 6.314663616e-02 -1.82772620e-01
 135 2 119662 8.9790154211577385e+02 5.2686552884891830e+02 1.8605939460247944e-13 1.4471287366345663e+02 8.2445535283259778e+02 8.2253475262639422e+03 -999 1.10221997e+00 6.301719489e-02 -1.82453559e-01
 136 2 119662 8.9035935054669949e+02 5.2904645283682657e+02 1.4683549034030031e-13 1.5468870809634825e+02 8.0040093663795335e+02 8.1973940340358695e+03 -999 1.10484795e+00 6.282964594e-02 -1.81976023e-01
 137 2 119662 9.1056595095158798e+02 5.3120242343534039e+02 1.5235791568765260e-13 1.3995535362012865e+02 8.2919050163953568e+02 8.1104464524111336e+03 -999 1.10755674e+00 6.263531095e-02 -1.81431966e-01
 138 2 119662 8.5256885120652294e+02 5.2353339673913752e+02 1.5292560058343698e-13 1.4569180365602898e+02 7.6611290172411270e+02 8.0404765485392627e+03 -999 1.10972264e+00 6.245851921e-02 -1.80918802e-01
 139 2 119662 9.5386339389722286e+02 5.4078157501063163e+02 1.5864116627174963e-13 1.4556924491400713e+02 8.7580264550998800e+02 8.0432457253057846e+03 -999 1.11211487e+00 6.229003255e-02 -1.80420409e-01
 140 2 119662 8.7295469387223193e+02 5.2617316602305209e+02 1.6836671598863117e-13 1.4363909665912789e+02 8.0082100615475895e+02 7.9969953332744590e+03 -999 1.11363312e+00 6.218649083e-02 -1.80115644e-01
 141 2 119662 8.2880945786180291e+02 5.1275830880847354e+02 1.1248737036988610e-13 1.4669116704070825e+02 7.4625533636961427e+02 8.0379105912654677e+03 -999 1.11493032e+00 6.212426702e-02 -1.79939251e-01