TITLE = "005.01 ALPHA 3.00 GRIDLEVEL 3"

VARIABLES = "ITERATION"  "GRID_LEVEL"  "GRID_SIZE"  "CONTINUITY"  "MOMENTUMX"  "MOMENTUMY"  "MOMENTUMZ"  "ENERGY"  "TURB1"  "TURB2"  "CL_TOT"  "CD_TOT"  "CM_TOT"

DATASETAUXDATA ParticipantID   = "005"
DATASETAUXDATA SubmissionDate  = "10-31-2024"
DATASETAUXDATA Name            = "Jeffrey A. Housman"
DATASETAUXDATA Email           = "jeffrey.a.housman@nasa.gov"
DATASETAUXDATA Institution     = "NASA Ames Research Center"
DATASETAUXDATA SolverName      = "LAVA Curvilinear"
DATASETAUXDATA BasicAlgorithm  = "RANS"
DATASETAUXDATA TurbulenceModel = "SA-neg"
DATASETAUXDATA GridId          = "Multiblock"
DATASETAUXDATA Discretization  = "Finite difference"
DATASETAUXDATA Order           = "2"
DATASETAUXDATA DistanceCalc    = "Exact"
DATASETAUXDATA Notes           = " "

ZONE T = "005.01 - Alpha 3.00 - Grid Level 3"
AUXDATA Tstatic         = "271.0"
AUXDATA Deltat          = "-999"
AUXDATA GridFileName    = "ONERA-OAT15A_230mmChord_780mmSpan_upZ_2024_06_25-Structured_23mm_Level-3.x"
AUXDATA Misc            = " "
 0 3 234820 2.6646359443702619e+05 6.4380276558356488e+05 4.4403268329628518e-14 2.4095926659014978e+05 2.7171854672710120e+05 9.8281146440978372e+05 -999 1.01162269e-02 6.039753064e-01 -5.98017459e-03
 1 3 234820 3.7621158712964872e+05 5.0320521812699840e+05 3.9156054561506760e-14 1.9585533211418509e+05 3.6421885486597754e+05 6.3755555856342916e+05 -999 4.56712926e-02 5.779555509e-01 -2.12161080e-02
 2 3 234820 4.5807357909008226e+05 4.4361796834482590e+05 3.5223986141850686e-14 2.1754010054584287e+05 4.3831066583987762e+05 4.1414109523847897e+05 -999 8.54472377e-02 5.686158680e-01 -3.81061366e-02
 3 3 234820 5.3793430048941216e+05 4.0427030913665378e+05 3.2186743424291532e-14 2.5598494946929946e+05 5.1391335498922772e+05 2.6851821159164299e+05 -999 1.20171512e-01 5.667499546e-01 -5.32832517e-02
 4 3 234820 6.1483088798198442e+05 3.7402573422756710e+05 2.9803984126321678e-14 3.0316802223364735e+05 5.9270393893997907e+05 1.7117139135403497e+05 -999 1.50632887e-01 5.692975877e-01 -6.51398678e-02
 5 3 234820 6.8998546180939244e+05 3.7757986580744921e+05 2.7950245941680324e-14 3.5439447916886694e+05 6.7651272662483994e+05 9.2943550043436684e+04 -999 1.74305418e-01 5.731911685e-01 -7.40525671e-02
 6 3 234820 6.3573870257651305e+05 4.2247515900945844e+05 2.6558334960429837e-14 3.7706418324302003e+05 6.2564453864927450e+05 6.6293030534047837e+04 -999 1.90238573e-01 5.705059145e-01 -8.07156630e-02
 7 3 234820 6.5054619887940574e+05 4.4332165307964169e+05 2.5295641708530331e-14 3.9299595885161590e+05 6.3600598801220965e+05 5.3221947812817387e+04 -999 2.03129700e-01 5.638040917e-01 -8.66269545e-02
 8 3 234820 7.0746903468050912e+05 4.4366116328914720e+05 2.4416730359680433e-14 4.0027916322857561e+05 7.1048132104219520e+05 4.5523695827489857e+04 -999 2.13287355e-01 5.532654973e-01 -9.11137382e-02
 9 3 234820 8.2323676727040438e+05 4.6252771776436624e+05 2.3799892963442668e-14 4.3203263070374931e+05 8.4469763506148651e+05 4.0406377676029377e+04 -999 2.23682950e-01 5.391164608e-01 -9.51898911e-02
 10 3 234820 8.0985042180107953e+05 4.2312787467247760e+05 2.3414818446721238e-14 4.1696085684511816e+05 8.3933273571866646e+05 3.6354464295534875e+04 -999 2.29772406e-01 5.300211361e-01 -9.74396631e-02
 11 3 234820 7.1370808246404654e+05 3.8805601632625761e+05 2.2909448517248127e-14 4.0043740537568426e+05 7.2419780379154743e+05 3.2919118471316091e+04 -999 2.37287982e-01 5.180817583e-01 -1.00332547e-01
 12 3 234820 6.7229253296467441e+05 4.0245849124566698e+05 2.2472263257163418e-14 3.8591942957774468e+05 6.7860822599664901e+05 3.0059377959824840e+04 -999 2.42750043e-01 5.087917894e-01 -1.02422424e-01
 13 3 234820 7.0711278411734791e+05 3.7815698280575196e+05 2.2092599938135675e-14 3.8780557235069847e+05 7.1695033413406229e+05 2.7684121709420815e+04 -999 2.47812247e-01 4.993009759e-01 -1.04375326e-01
 14 3 234820 6.9450300288966822e+05 3.6317361675325473e+05 2.1801741545434025e-14 3.6847874901656376e+05 7.1483541091321292e+05 2.5706076809206006e+04 -999 2.50611840e-01 4.931551429e-01 -1.05514326e-01
 15 3 234820 7.3782112143558671e+05 3.9587305344551266e+05 2.1548288879186595e-14 3.8323155561655801e+05 7.6504753688608925e+05 2.4060598817615220e+04 -999 2.53409470e-01 4.864015892e-01 -1.06733052e-01
 16 3 234820 6.6077950564873812e+05 3.8565098727549636e+05 2.1281303057604681e-14 3.5554645622429834e+05 6.8907196008669934e+05 2.2124827911396314e+04 -999 2.55300890e-01 4.810697505e-01 -1.07616556e-01
 17 3 234820 5.7129445209108235e+05 3.1667236290081439e+05 2.0971262248919042e-14 3.2383634358801763e+05 5.8229991081851779e+05 2.0471680513831860e+04 -999 2.57459819e-01 4.745051891e-01 -1.08628654e-01
 18 3 234820 5.6838799806304753e+05 3.2689716260813019e+05 2.0705362521383034e-14 3.1500767094446078e+05 5.7882270440632221e+05 1.9090146830569480e+04 -999 2.59356696e-01 4.680935118e-01 -1.09486193e-01
 19 3 234820 5.8423402250745217e+05 2.9677346398892120e+05 2.0510986574352704e-14 3.1097981071800407e+05 5.9539700268338551e+05 1.7874508911239736e+04 -999 2.60887136e-01 4.622735898e-01 -1.10128706e-01
 20 3 234820 6.0285108943187341e+05 3.0160986411931220e+05 2.0393040140377893e-14 3.0116355750583991e+05 6.3022000762456446e+05 1.6789190744748481e+04 -999 2.61929573e-01 4.578073797e-01 -1.10528191e-01
 21 3 234820 5.0835886875198368e+05 2.7083134331289935e+05 2.0185685652319976e-14 2.7763228151598567e+05 5.2874825348930270e+05 1.5537848586428299e+04 -999 2.62968354e-01 4.524779292e-01 -1.10893832e-01
 22 3 234820 4.5849054991406086e+05 2.6596258107076003e+05 1.9985379616720807e-14 2.6122637930084596e+05 4.6742306323301827e+05 1.4464695735153760e+04 -999 2.63930136e-01 4.471313193e-01 -1.11211462e-01
 23 3 234820 4.6515832980516599e+05 2.5138710364001367e+05 1.9793325026655835e-14 2.5256417708754283e+05 4.7100982583792700e+05 1.3522589274782311e+04 -999 2.64909236e-01 4.412397718e-01 -1.11521378e-01
 24 3 234820 4.6257682005988609e+05 2.4324679764665823e+05 1.9660813867169774e-14 2.4268858166848021e+05 4.7783354094458628e+05 1.2713535744901701e+04 -999 2.65541140e-01 4.370122401e-01 -1.11717355e-01
 25 3 234820 5.4096565753345657e+05 3.0230434944411897e+05 1.9532106094054402e-14 2.5657086441907930e+05 5.7514291561713582e+05 1.1996447839748307e+04 -999 2.66202682e-01 4.322226921e-01 -1.11926036e-01
 26 3 234820 4.4107266771741863e+05 2.6785806488804711e+05 1.9312471187536413e-14 2.2754176406512555e+05 4.7214968869037868e+05 1.1157384959926989e+04 -999 2.66650564e-01 4.281629300e-01 -1.12067383e-01
 27 3 234820 3.6811313212205004e+05 2.1802159650239212e+05 1.9079657010173615e-14 2.0487185013396275e+05 3.8171407040245691e+05 1.0407719497887267e+04 -999 2.67108308e-01 4.237897328e-01 -1.12216572e-01
 28 3 234820 3.5409479272908182e+05 2.0410445675376980e+05 1.8862904713104834e-14 1.9274766484487985e+05 3.5838688200762321e+05 9.7398651646141534e+03 -999 2.67566535e-01 4.191472715e-01 -1.12370205e-01
 29 3 234820 3.6922402696623589e+05 2.0205817896502369e+05 1.8724402778433137e-14 1.8717085061736047e+05 3.8436317639554647e+05 9.1632650454874056e+03 -999 2.67903389e-01 4.155274519e-01 -1.12485826e-01
 30 3 234820 4.2907540126293327e+05 2.4687782388649264e+05 1.8607276569284628e-14 1.9543745155201852e+05 4.5847215131835896e+05 8.6457829185230567e+03 -999 2.68247363e-01 4.116947794e-01 -1.12605314e-01
 31 3 234820 3.5295787659509090e+05 2.2133235340280854e+05 1.8404272240834984e-14 1.7445682754329470e+05 3.8243460094957642e+05 7.9909671037950566e+03 -999 2.68474483e-01 4.085805806e-01 -1.12680355e-01
 32 3 234820 2.8267778094477026e+05 1.7938912846826282e+05 1.8154601068685815e-14 1.5357306120053877e+05 3.0042593015101232e+05 7.4139447558334841e+03 -999 2.68737630e-01 4.049407704e-01 -1.12766748e-01
 33 3 234820 2.5323803196002307e+05 1.5776873684827046e+05 1.7899948151072529e-14 1.3890156302178904e+05 2.5785957386422635e+05 6.8993928029667450e+03 -999 2.69023499e-01 4.009258480e-01 -1.12859507e-01
 34 3 234820 2.6942934372664784e+05 1.5436809901806791e+05 1.7698028614021944e-14 1.3382803706827518e+05 2.7764349642311438e+05 6.4453649061444366e+03 -999 2.69277730e-01 3.972834935e-01 -1.12941413e-01
 35 3 234820 2.7753161406988680e+05 1.5514250892171683e+05 1.7564594629753390e-14 1.3054107818170910e+05 2.9304932436530059e+05 6.0509106953049550e+03 -999 2.69466691e-01 3.945272396e-01 -1.13002491e-01
 36 3 234820 2.3585252979845699e+05 1.3853557670909603e+05 1.7362896151816613e-14 1.1857435772615981e+05 2.5257134163228731e+05 5.5139835052930212e+03 -999 2.69629823e-01 3.916631369e-01 -1.13052301e-01
 37 3 234820 1.9119024818599343e+05 1.2550773853994842e+05 1.7112638254409956e-14 1.0544839702482715e+05 2.0337587405575317e+05 5.0461788460295238e+03 -999 2.69820322e-01 3.883513375e-01 -1.13110855e-01
 38 3 234820 1.6635171295366532e+05 1.1168850657653435e+05 1.6832764504641942e-14 9.3728851644176379e+04 1.7044081112451057e+05 4.6427918406926792e+03 -999 2.70033127e-01 3.846914550e-01 -1.13176669e-01
 39 3 234820 1.7280756594010393e+05 1.0864044534351600e+05 1.6586616698328352e-14 8.7464977052334682e+04 1.7756207514820367e+05 4.2941611273916233e+03 -999 2.70234645e-01 3.812619856e-01 -1.13239446e-01
 40 3 234820 1.8381355077340087e+05 1.0951035304232288e+05 1.6393237990099645e-14 8.4830081787872448e+04 1.9240834868881173e+05 3.9900598263950142e+03 -999 2.70409687e-01 3.782934452e-01 -1.13294771e-01
 41 3 234820 1.5538603996058204e+05 1.0038003900740012e+05 1.6172690144428972e-14 7.6744614016254272e+04 1.6679080814526597e+05 3.5965359226005658e+03 -999 2.70544444e-01 3.756381684e-01 -1.13335257e-01
 42 3 234820 1.2171860709628656e+05 9.0051578856539360e+04 1.5894645536412241e-14 6.7296771328785995e+04 1.3123236300430514e+05 3.2564100563110360e+03 -999 2.70710758e-01 3.724302739e-01 -1.13386130e-01
 43 3 234820 1.0069787329972856e+05 8.0861435504448207e+04 1.5578123380296702e-14 5.8670367518163555e+04 1.0462752065035299e+05 2.9665049650185774e+03 -999 2.70901786e-01 3.688317617e-01 -1.13445883e-01
 44 3 234820 9.9662508559112248e+04 7.7395541395896144e+04 1.5303986475969861e-14 5.3629665816194349e+04 1.0295190611295404e+05 2.7185724779761472e+03 -999 2.71082850e-01 3.654915621e-01 -1.13504294e-01
 45 3 234820 1.0321093324001378e+05 7.7198471722851100e+04 1.5070861829623878e-14 5.0815623000038097e+04 1.0882145189634322e+05 2.5072380524293876e+03 -999 2.71242411e-01 3.625825417e-01 -1.13557893e-01
 46 3 234820 8.8114085328741305e+04 7.0812921519391777e+04 1.4845938830992458e-14 4.6469085334382748e+04 9.5008067962292014e+04 2.2129332842557860e+03 -999 2.71364068e-01 3.600021988e-01 -1.13599025e-01
 47 3 234820 7.0429343215412053e+04 6.4558705204781123e+04 1.4554333334172373e-14 4.1493029980373780e+04 7.6923567826931088e+04 1.9742308898450372e+03 -999 2.71511132e-01 3.569324472e-01 -1.13650038e-01
 48 3 234820 5.6611789028191823e+04 5.8846728580395764e+04 1.4210326199430466e-14 3.6467331303446670e+04 6.0735769237801243e+04 1.7674824371045070e+03 -999 2.71687122e-01 3.533172277e-01 -1.13713095e-01
 49 3 234820 5.1465693258820764e+04 5.5408415552181978e+04 1.3884738900112953e-14 3.2882221928602252e+04 5.3968969661195013e+04 1.5864197932740180e+03 -999 2.71862017e-01 3.497672873e-01 -1.13778910e-01
 50 3 234820 4.9416765068932611e+04 5.3434696727240946e+04 1.3600095870592870e-14 3.0478061281703503e+04 5.1803578453469891e+04 1.4521700016256830e+03 -999 2.72018861e-01 3.465897002e-01 -1.13841959e-01
 51 3 234820 4.3088869093980436e+04 5.0646666260150021e+04 1.3345426680433488e-14 2.8228981827289314e+04 4.5736856767984245e+04 1.2616398663001394e+03 -999 2.72137014e-01 3.437999819e-01 -1.13882442e-01
 52 3 234820 3.5665557522372867e+04 4.7603729151873828e+04 1.3028465280775620e-14 2.5611338027749225e+04 3.7999390226815398e+04 1.1086423631449843e+03 -999 2.72283561e-01 3.403709392e-01 -1.13931072e-01
 53 3 234820 2.9316238709645258e+04 4.4460373217807355e+04 1.2637542985689113e-14 2.2828716296669616e+04 3.0730580408660728e+04 9.8342934623098904e+02 -999 2.72461590e-01 3.362233969e-01 -1.13988024e-01
 54 3 234820 2.5837380512861786e+04 4.1899559665552624e+04 1.2243390708275602e-14 2.0552997605346376e+04 2.6575000202791420e+04 8.8439727982549050e+02 -999 2.72639790e-01 3.320226573e-01 -1.14043790e-01
 55 3 234820 2.3652721529580482e+04 3.9871085859943531e+04 1.1910105985043050e-14 1.8947549900708666e+04 2.4044758905780756e+04 8.0559111779318835e+02 -999 2.72782481e-01 3.281382477e-01 -1.14099336e-01
 56 3 234820 2.1183544767754967e+04 3.7960978523545076e+04 1.1601946907430217e-14 1.7467105659898392e+04 2.1508967817855060e+04 7.1273701650350927e+02 -999 2.72862869e-01 3.243999336e-01 -1.14099015e-01
 57 3 234820 1.8484859955274333e+04 3.5763409654129006e+04 1.1228267328634371e-14 1.5774279475150266e+04 1.8700468663843374e+04 6.4270513487335461e+02 -999 2.72954053e-01 3.196577288e-01 -1.14085970e-01
 58 3 234820 1.6181358888468385e+04 3.3386103693338555e+04 1.0760578315987140e-14 1.3999707987175614e+04 1.6365531879148482e+04 5.9473223492901582e+02 -999 2.73056319e-01 3.137795149e-01 -1.14052772e-01
 59 3 234820 1.4787408833929727e+04 3.1326851063404520e+04 1.0317783019632558e-14 1.2567231980510896e+04 1.5157664042485367e+04 5.6160368920577127e+02 -999 2.73156523e-01 3.077635698e-01 -1.14002793e-01
 60 3 234820 1.3962656908903464e+04 2.9625708150482271e+04 9.9238461271054173e-15 1.1508114017594116e+04 1.4634092883357758e+04 5.3728854923393374e+02 -999 2.73259964e-01 3.019335886e-01 -1.13945161e-01
 61 3 234820 1.2881262558898836e+04 2.7778831649633263e+04 9.5173311577096885e-15 1.0543777592147771e+04 1.3915365680542582e+04 5.0633027601534189e+02 -999 2.73353951e-01 2.948745097e-01 -1.13808785e-01
 62 3 234820 1.2142547037432143e+04 2.5703367925437211e+04 9.0084244464875216e-15 9.7520352115559053e+03 1.3577368035951451e+04 5.0507565831024039e+02 -999 2.73581615e-01 2.853210907e-01 -1.13642415e-01
 63 3 234820 1.2129657285802077e+04 2.3719745312898409e+04 8.5571263945311430e-15 9.4655742115698758e+03 1.3889108509803433e+04 5.3170725264773387e+02 -999 2.74056466e-01 2.735709911e-01 -1.13506213e-01
 64 3 234820 1.2610225307516075e+04 2.2194468411540332e+04 8.2089951897173416e-15 9.6352109626916626e+03 1.4537400541140696e+04 5.7767512124066957e+02 -999 2.74799088e-01 2.614487199e-01 -1.13506349e-01
 65 3 234820 1.3113630331203589e+04 2.1042251403189308e+04 8.0207506943672987e-15 9.8991030219790264e+03 1.5092804463239441e+04 6.6457139757643654e+02 -999 2.75777783e-01 2.492327833e-01 -1.13708316e-01
 66 3 234820 1.2776289134404806e+04 1.9119961490674079e+04 7.6519448606700310e-15 9.0668720502481647e+03 1.4672099368369174e+04 8.9957456972126852e+02 -999 2.77491699e-01 2.304155992e-01 -1.14547134e-01
 67 3 234820 1.2494718885007882e+04 1.8014986063740154e+04 7.3665781438402114e-15 8.4988404352578746e+03 1.4024406906625452e+04 1.9641774515868417e+03 -999 2.79928983e-01 2.041087853e-01 -1.16553590e-01
 68 3 234820 1.1961204289787695e+04 1.7689344610406857e+04 7.0123271668817171e-15 8.5682975178310644e+03 1.2903546660429951e+04 5.0355991047793759e+03 -999 2.81477013e-01 1.774225388e-01 -1.19818236e-01
 69 3 234820 1.1767933031748698e+04 1.7371776282908861e+04 6.4993984165243129e-15 8.5743748603477889e+03 1.2274273569893916e+04 7.5890219997968761e+03 -999 2.80861390e-01 1.668713846e-01 -1.21464084e-01
 70 3 234820 1.1829511382943634e+04 1.7217647182826360e+04 6.1744081696084335e-15 8.5518684854891162e+03 1.1964759945831333e+04 9.5247639037665322e+03 -999 2.79932187e-01 1.605779209e-01 -1.22400659e-01
 71 3 234820 9.7655675463132411e+03 1.4552534584003941e+04 5.6963549836377558e-15 7.7721489482796542e+03 1.0201418089196786e+04 2.6299187363266607e+04 -999 2.75902595e-01 1.457052305e-01 -1.24098864e-01
 72 3 234820 8.3341136140644539e+03 1.3997142235400077e+04 5.2126404875618859e-15 6.7865596915826291e+03 8.4982019368683250e+03 8.6103102619598940e+04 -999 2.67043500e-01 1.273188105e-01 -1.24954758e-01
 73 3 234820 7.7606495993277313e+03 2.3581369079270815e+04 4.7659142047344120e-15 5.4183131296436932e+03 8.5224098523137254e+03 4.9574097720903890e+04 -999 2.57787007e-01 1.152594812e-01 -1.23616906e-01
 74 3 234820 7.6179148759748086e+03 2.5685487631086060e+04 4.4434270991227932e-15 5.2924059103768623e+03 1.0070617187614875e+04 2.8034551246381561e+04 -999 2.56426613e-01 1.135291550e-01 -1.23185314e-01
 75 3 234820 7.3740210027404419e+03 2.9446481600949617e+04 4.3171112038064805e-15 5.1988312971177756e+03 1.1793837486010509e+04 1.7982699802907075e+04 -999 2.55633807e-01 1.124449391e-01 -1.22906316e-01
 76 3 234820 6.4678217242725341e+03 2.0402842757815186e+04 4.2151688695689936e-15 4.7592803561206547e+03 8.0158617305709377e+03 1.5023244250653222e+04 -999 2.52132254e-01 1.077908162e-01 -1.21700484e-01
 77 3 234820 5.7452750633854512e+03 1.4422002327103226e+04 4.1153882514223812e-15 4.5959098673538592e+03 5.8644983979184317e+03 1.3429305562975867e+04 -999 2.49334112e-01 1.029380822e-01 -1.20298272e-01
 78 3 234820 5.4450684603561913e+03 1.2444953410190652e+04 3.9520411653599762e-15 4.5858256196710745e+03 5.4082537009849229e+03 1.3530034222083543e+04 -999 2.48737487e-01 9.956617070e-02 -1.19383856e-01
 79 3 234820 5.2425092116668366e+03 1.1580727415429776e+04 3.7563057220998464e-15 4.6024505182926296e+03 5.1851710402080662e+03 1.3920691731192634e+04 -999 2.49425547e-01 9.779493888e-02 -1.19085504e-01
 80 3 234820 5.1964027128886191e+03 1.0626316491686615e+04 3.7511036889969577e-15 4.6327307154731998e+03 5.0833990656788137e+03 1.4755950104644964e+04 -999 2.50966443e-01 9.575392822e-02 -1.18918741e-01
 81 3 234820 4.6333499676235324e+03 7.7133833821958242e+03 9.3627095270006881e-14 3.9299955969757702e+03 4.4555977331939021e+03 2.0234000256681535e+04 -999 2.73047953e-01 8.799582673e-02 -1.23434488e-01
 82 3 234820 4.8061121744875873e+03 8.0401150180680179e+03 1.4211617354885749e-13 3.7933402145158011e+03 4.6975453588936034e+03 5.5370808340162657e+04 -999 3.05045622e-01 8.234808031e-02 -1.33454817e-01
 83 3 234820 5.2612833784789600e+03 1.0867876963320057e+04 1.1725589704947319e-13 3.4658163737231530e+03 6.4314034569935930e+03 7.4701917813256048e+04 -999 3.38349274e-01 7.811546306e-02 -1.46060760e-01
 84 3 234820 5.4673675766438973e+03 1.0347864647232169e+04 8.8510258851061537e-14 3.2740849088082150e+03 1.0326059221344736e+04 1.4074435851824060e+05 -999 3.54063362e-01 7.643222444e-02 -1.52426330e-01
 85 3 234820 5.2490359147912295e+03 8.5767874975202358e+03 6.9334106573581482e-14 3.4424363647429705e+03 1.1737812468360558e+04 2.5615094347237234e+05 -999 3.65330218e-01 7.524001764e-02 -1.56861255e-01
 86 3 234820 3.1619026480883954e+03 4.4633707603022322e+03 1.3497276453948540e-13 2.7677384984652122e+03 3.1231600379370079e+03 2.8384450187262218e+05 -999 3.91897369e-01 7.275425197e-02 -1.67167630e-01
 87 3 234820 2.6992539480277346e+03 4.4025390578318593e+03 1.6812902689541726e-13 2.6160895389825973e+03 2.8932885662592835e+03 2.1281490601270422e+05 -999 4.17789562e-01 7.023662534e-02 -1.76498329e-01
 88 3 234820 2.5387834869685148e+03 6.9770748522782251e+03 1.5864038841014307e-13 2.3018374140303358e+03 2.9883981787316393e+03 6.2231434211134423e+04 -999 4.28602764e-01 6.925147425e-02 -1.79906626e-01
 89 3 234820 2.4920748657214117e+03 7.7106571102110347e+03 1.5436843945760313e-13 1.9668874026015958e+03 2.7416357368352242e+03 5.1049578185263024e+04 -999 4.32250569e-01 6.893705137e-02 -1.80973292e-01
 90 3 234820 2.4591173656259703e+03 6.2287967663875097e+03 1.5081625160291309e-13 1.8937451863843780e+03 2.5219076088325437e+03 3.8125320393672759e+04 -999 4.35212590e-01 6.868692488e-02 -1.81818556e-01
 91 3 234820 2.1385701748701258e+03 2.4947097289830926e+03 2.6674352246337133e-13 1.3502064512178952e+03 2.0638399640105558e+03 6.4625106780689304e+04 -999 4.86377150e-01 6.515746079e-02 -1.94066338e-01
 92 3 234820 2.1221611796555426e+03 2.4198881263757885e+03 2.8450552411412991e-13 9.3190190875564178e+02 2.0663597539749921e+03 4.8831938505099279e+04 -999 5.42603771e-01 6.280327687e-02 -2.03474966e-01
 93 3 234820 2.2313428066389015e+03 2.2759235500388731e+03 2.3319267323714490e-13 7.0139674959090837e+02 2.2081359709007347e+03 2.4599982511598821e+04 -999 5.86123587e-01 6.189964137e-02 -2.07427156e-01
 94 3 234820 2.2456316274402475e+03 2.1549042427880559e+03 2.0900775385974883e-13 6.1064093979734196e+02 2.2326265197295206e+03 1.3815694384856806e+04 -999 6.07492043e-01 6.184268543e-02 -2.08348863e-01
 95 3 234820 2.5400657002164821e+03 2.0556523695108626e+03 1.7758605342434070e-13 5.3079411056432480e+02 2.5766434096982939e+03 1.0809847277254577e+04 -999 6.42411139e-01 6.204997884e-02 -2.09043802e-01
 96 3 234820 1.7519118882085256e+03 1.6585739548944200e+03 5.4941051360835575e-13 3.9605121081110036e+02 1.7063254400825217e+03 7.7464137086935643e+03 -999 6.93517983e-01 6.388796745e-02 -2.07074919e-01
 97 3 234820 1.3604453775328102e+03 1.4176173623700890e+03 8.7308861299931859e-13 3.2520413163052740e+02 1.2890790286838505e+03 5.9853657557260985e+03 -999 7.46442777e-01 6.560300326e-02 -2.03399189e-01
 98 3 234820 1.1534379557457096e+03 1.2320107494021217e+03 1.0026242095446247e-12 2.6638893181441284e+02 1.0765558000725771e+03 5.4904212390596713e+03 -999 7.99172870e-01 6.676458773e-02 -1.98207838e-01
 99 3 234820 1.0853679071144290e+03 1.2258093747132368e+03 9.9213149218924750e-13 2.5390236928795525e+02 1.0066553463680314e+03 5.3096691759618734e+03 -999 8.14530865e-01 6.677456026e-02 -1.96301088e-01
 100 3 234820 1.0268577320508996e+03 1.2004927692216729e+03 9.7073595065733923e-13 2.4498989666556218e+02 9.4669557087822011e+02 6.1032006255890901e+03 -999 8.30949991e-01 6.661342123e-02 -1.94242386e-01
 101 3 234820 9.9025372363383951e+02 1.5407021931611901e+03 8.8922994217875246e-13 2.7778863619957161e+02 9.2106502570484474e+02 8.7190218173700760e+03 -999 8.43152616e-01 6.596397617e-02 -1.93238946e-01
 102 3 234820 9.5606487424864952e+02 1.5935267542927381e+03 8.0848550233005222e-13 3.0221137922145692e+02 8.8639325623516936e+02 5.8110495160128648e+03 -999 8.57140490e-01 6.515837828e-02 -1.92010720e-01
 103 3 234820 9.2399560021863692e+02 1.3900277370641638e+03 7.3382838612099197e-13 3.1503795320210781e+02 8.4280911430003698e+02 7.3411990557537974e+03 -999 8.73019414e-01 6.417075792e-02 -1.90586047e-01
 104 3 234820 9.0263278999107808e+02 1.2312511445560026e+03 6.7207374715407241e-13 3.2630612592025915e+02 8.1374423208816688e+02 8.3191914092821735e+03 -999 8.89905227e-01 6.303527849e-02 -1.89057865e-01
 105 3 234820 9.1420056724345488e+02 1.1758039517978652e+03 6.3876968931801064e-13 3.3394440063851090e+02 8.2030069658285129e+02 8.8557148541992337e+03 -999 9.01920776e-01 6.216611483e-02 -1.87893494e-01
 106 3 234820 9.1420056724345488e+02 1.2172793769870086e+03 6.3876527396908851e-13 3.4363295425486029e+02 8.2129028552008958e+02 4.0759336914809428e+03 -999 9.01920776e-01 6.216611483e-02 -1.87893494e-01
 107 3 234820 9.3046905906861400e+02 1.3345392012785412e+03 6.3911856473606709e-13 4.0727176952659147e+02 8.4016222658314769e+02 6.2416992118513672e+03 -999 9.11487060e-01 6.167612430e-02 -1.87184316e-01
 108 3 234820 8.7430687918875890e+02 1.1917289346526702e+03 5.3413017021721218e-13 3.2356124378307254e+02 7.8369211304021701e+02 7.1296775439548483e+03 -999 9.14254262e-01 6.163147622e-02 -1.87045293e-01
 109 3 234820 8.6733657952961300e+02 1.0668666862170169e+03 4.5701873543718733e-13 2.7123830275124550e+02 7.7795779178550322e+02 8.3056101804252594e+03 -999 9.17982837e-01 6.154685558e-02 -1.86838252e-01
 110 3 234820 9.0246628289645810e+02 9.5982535047224201e+02 4.2447384248768528e-13 2.6542476547921120e+02 8.1490509018172361e+02 8.5733507416200337e+03 -999 9.22780328e-01 6.139533964e-02 -1.86528573e-01
 111 3 234820 8.9792248970819469e+02 9.3614549540439714e+02 3.6872636342019906e-13 2.6534970542868479e+02 8.1015434183089997e+02 8.3844431567800038e+03 -999 9.24572142e-01 6.131197686e-02 -1.86392723e-01
 112 3 234820 8.9954587379614236e+02 9.0774631580329083e+02 3.3014061779607673e-13 2.6818316325938969e+02 8.1091258768862758e+02 8.6710126035141584e+03 -999 9.26988462e-01 6.117325528e-02 -1.86159299e-01
 113 3 234820 9.1925378787380725e+02 8.7239233863602612e+02 3.2444685569787774e-13 2.6954530028637669e+02 8.2734044641916978e+02 8.7619860653745018e+03 -999 9.30538129e-01 6.090557713e-02 -1.85676935e-01
 114 3 234820 9.3402592664943711e+02 8.4927476385691784e+02 3.2974026920809763e-13 2.6438261058995175e+02 8.3969743110117372e+02 8.8235082836622132e+03 -999 9.33000365e-01 6.066111385e-02 -1.85243724e-01
 115 3 234820 9.4885379897806649e+02 8.3214282642720354e+02 3.3673966283244981e-13 2.5726254408320602e+02 8.5250558340870816e+02 8.8590316017363511e+03 -999 9.35468829e-01 6.039256704e-02 -1.84788898e-01
 116 3 234820 9.5034078347378488e+02 8.1398465145898547e+02 2.5915089547510109e-13 2.4329952069187252e+02 8.4996314641338927e+02 8.9769224687115020e+03 -999 9.39169408e-01 5.994868587e-02 -1.84053564e-01
 117 3 234820 9.7966004114619852e+02 7.9128155869805323e+02 2.2368524379810439e-13 2.2656500417339450e+02 8.7670420419238508e+02 8.8259420579691869e+03 -999 9.44725094e-01 5.931185714e-02 -1.83140776e-01
 118 3 234820 9.8468152929995563e+02 7.7549910330208911e+02 2.1700951103390201e-13 2.1501382104181727e+02 8.8182153484671949e+02 8.7412614368153518e+03 -999 9.50916033e-01 5.868455544e-02 -1.82508411e-01
 119 3 234820 1.0274711795251756e+03 7.7583912851983814e+02 2.1228166678639799e-13 2.1289824746670655e+02 9.1693277462503897e+02 8.5993515660231697e+03 -999 9.57476881e-01 5.806531792e-02 -1.82088095e-01
 120 3 234820 1.0471334925387180e+03 7.6811528859703697e+02 2.0652429579507711e-13 2.0758071568087232e+02 9.4320481822963245e+02 8.5199321332836171e+03 -999 9.62505921e-01 5.762964281e-02 -1.81920732e-01
 121 3 234820 9.9191071578864046e+02 7.5856064609846953e+02 1.8472247463456440e-13 2.0427323873822479e+02 8.8124091621681760e+02 8.5112750303488483e+03 -999 9.66879337e-01 5.715234223e-02 -1.81549165e-01
 122 3 234820 1.0141940204028379e+03 7.5136910108509028e+02 2.3169106930961369e-13 2.0340396572541334e+02 8.9710793802484613e+02 8.5599472735340169e+03 -999 9.73853992e-01 5.649544415e-02 -1.81201382e-01
 123 3 234820 1.0024783874347725e+03 7.4591542400005915e+02 2.7978291975086114e-13 2.0016236171970726e+02 8.9580310634922409e+02 8.7680677613666376e+03 -999 9.82753522e-01 5.571375763e-02 -1.80853779e-01
 124 3 234820 9.4659493306244394e+02 7.3495067249147883e+02 2.8408833161559768e-13 2.0245133233306288e+02 8.3194573168892055e+02 8.6469277564153308e+03 -999 9.86629258e-01 5.543079209e-02 -1.80821928e-01
 125 3 234820 9.6666196436196367e+02 7.2906210594620302e+02 2.8830782761420645e-13 2.0578036411243158e+02 8.5191294149305770e+02 8.8514078987838693e+03 -999 9.91583482e-01 5.506981977e-02 -1.80775566e-01
 126 3 234820 8.6233931833253280e+02 7.0745765101496102e+02 2.2748605872888028e-13 2.0008596348452744e+02 7.5551944859439379e+02 9.1171868181546452e+03 -999 9.97601475e-01 5.459750512e-02 -1.80610855e-01
 127 3 234820 8.1653965197725972e+02 6.8663513950991432e+02 2.3218477621050083e-13 2.0139339791118897e+02 7.1096868731992311e+02 9.2422153951187229e+03 -999 1.00409537e+00 5.411541695e-02 -1.80380919e-01
 128 3 234820 8.1446152113680216e+02 6.7562285073073156e+02 2.4029569761672084e-13 2.0008869990973690e+02 7.1509555423411155e+02 9.3750887228307583e+03 -999 1.00992980e+00 5.371769963e-02 -1.80118653e-01
 129 3 234820 7.8344741222561925e+02 6.7751923571873897e+02 2.4107377895999002e-13 1.9880602450811890e+02 6.8660090173860044e+02 9.4580045023374532e+03 -999 1.01487400e+00 5.340253165e-02 -1.79828043e-01
 130 3 234820 7.9344588376327158e+02 6.7260615049617411e+02 2.3445281991058906e-13 1.9735365853777125e+02 6.9214974899890478e+02 9.4247128460452568e+03 -999 1.01790372e+00 5.321336984e-02 -1.79592827e-01
 131 3 234820 7.8082819659590098e+02 6.5984242230628195e+02 1.8768934986449837e-13 1.9443283624712177e+02 6.8064930136968223e+02 9.6200870565551540e+03 -999 1.02074970e+00 5.304499534e-02 -1.79352930e-01
 132 3 234820 7.7180683994767946e+02 6.5201619720429358e+02 1.9088262946121144e-13 1.9165292958660413e+02 6.7359438734270054e+02 9.5963061415259326e+03 -999 1.02444786e+00 5.283022683e-02 -1.79005094e-01
 133 3 234820 7.7193895931833435e+02 6.5021141582932023e+02 2.0997073196897427e-13 1.8811527828757733e+02 6.7315067257071394e+02 9.5806182617602444e+03 -999 1.02890978e+00 5.258786754e-02 -1.78559240e-01
 134 3 234820 7.8140708057296456e+02 6.4468865525335889e+02 2.1216111494759478e-13 1.8500828105122363e+02 6.8293799141508259e+02 9.7764241988127578e+03 -999 1.03129842e+00 5.246635070e-02 -1.78302614e-01
 135 3 234820 7.8068479862438710e+02 6.4403540540111715e+02 2.1250485073524262e-13 1.8237632847115890e+02 6.8498629646774930e+02 9.9188093050023963e+03 -999 1.03359600e+00 5.235218125e-02 -1.78050695e-01
 136 3 234820 7.6067591048333293e+02 6.3971000685143338e+02 1.5430033968179764e-13 1.8113007000645396e+02 6.6322822174736109e+02 1.0119547492953658e+04 -999 1.03612104e+00 5.221619982e-02 -1.77728255e-01
 137 3 234820 7.7208307480257679e+02 6.3471172236618600e+02 1.5759196062247448e-13 1.7904647394102241e+02 6.7357228182818494e+02 1.0624694258978723e+04 -999 1.03901553e+00 5.206212256e-02 -1.77348643e-01
 138 3 234820 7.8628035299413580e+02 6.3212309174996199e+02 1.7562410274399829e-13 1.7540400284472628e+02 6.9006107870165590e+02 1.0669860659852326e+04 -999 1.04182709e+00 5.191489034e-02 -1.76980254e-01
 139 3 234820 7.9816725544149779e+02 6.4711058738301779e+02 1.8735752546619093e-13 1.7281010605787006e+02 7.0151570062816552e+02 1.1403571353264701e+04 -999 1.04452485e+00 5.176894838e-02 -1.76619470e-01
 140 3 234820 8.1399721825917561e+02 6.3635521935314750e+02 1.9034082114304789e-13 1.7074615722734228e+02 7.1642735876642530e+02 1.1685693728728433e+04 -999 1.04600636e+00 5.167209544e-02 -1.76384544e-01
 141 3 234820 7.9285587614363828e+02 6.2489805364870710e+02 1.6056595130387247e-13 1.6999890569955522e+02 6.9579956080542274e+02 9.1525067144180503e+03 -999 1.04767693e+00 5.156740362e-02 -1.76140291e-01