TITLE = "005.01 ALPHA 3.40 GRIDLEVEL 6"

VARIABLES = "ITERATION"  "GRID_LEVEL"  "GRID_SIZE"  "CONTINUITY"  "MOMENTUMX"  "MOMENTUMY"  "MOMENTUMZ"  "ENERGY"  "TURB1"  "TURB2"  "CL_TOT"  "CD_TOT"  "CM_TOT"

DATASETAUXDATA ParticipantID   = "005"
DATASETAUXDATA SubmissionDate  = "10-31-2024"
DATASETAUXDATA Name            = "Jeffrey A. Housman"
DATASETAUXDATA Email           = "jeffrey.a.housman@nasa.gov"
DATASETAUXDATA Institution     = "NASA Ames Research Center"
DATASETAUXDATA SolverName      = "LAVA Curvilinear"
DATASETAUXDATA BasicAlgorithm  = "RANS"
DATASETAUXDATA TurbulenceModel = "SA-neg"
DATASETAUXDATA GridId          = "Multiblock"
DATASETAUXDATA Discretization  = "Finite difference"
DATASETAUXDATA Order           = "2"
DATASETAUXDATA DistanceCalc    = "Exact"
DATASETAUXDATA Notes           = " "

ZONE T = "005.01 - Alpha 3.40 - Grid Level 6"
AUXDATA Tstatic         = "271.0"
AUXDATA Deltat          = "-999"
AUXDATA GridFileName    = "ONERA-OAT15A_230mmChord_780mmSpan_upZ_2024_06_25-Structured_23mm_Level-6.x"
AUXDATA Misc            = " "
 0 6 1281933 6.2714737183530524e+05 2.2416432990833339e+06 1.0839279083606072e-13 6.4595434964135929e+05 6.8136950380747532e+05 3.9277653204701175e+06 -999 1.98971232e-02 1.052882151e+00 -1.23580025e-02
 1 6 1281933 9.5414423855514557e+05 1.6376239951223410e+06 9.0831759835039833e-14 4.7429475720160984e+05 9.3310139276340243e+05 2.5553118682885193e+06 -999 5.41745965e-02 9.457563621e-01 -2.61351154e-02
 2 6 1281933 1.1682019972188505e+06 1.3747708240461743e+06 7.8097397082172004e-14 5.1684702724675275e+05 1.1237469962236641e+06 1.6699381311988181e+06 -999 9.75733104e-02 8.809001622e-01 -4.33996279e-02
 3 6 1281933 1.3531419800636144e+06 1.2147325647620496e+06 6.8521359872296460e-14 6.1461602101551637e+05 1.3000752145016207e+06 1.0977477890377920e+06 -999 1.38147106e-01 8.368493704e-01 -5.97594736e-02
 4 6 1281933 1.5046617581391062e+06 1.1063832105879372e+06 6.1148731686874006e-14 7.3340140006258001e+05 1.4611709504580065e+06 7.1607094492153090e+05 -999 1.74264529e-01 8.054811343e-01 -7.28738154e-02
 5 6 1281933 1.6666819668833727e+06 1.1029658995875088e+06 5.5388676771709469e-14 8.5652279854768456e+05 1.6630180782854203e+06 4.6388460461963358e+05 -999 2.01979975e-01 7.805308357e-01 -8.29385548e-02
 6 6 1281933 1.5079719793436108e+06 1.1048953382960602e+06 5.0957603666396359e-14 8.8697832712501229e+05 1.5078738100390479e+06 2.7840144424011069e+05 -999 2.21223657e-01 7.511254358e-01 -9.05631233e-02
 7 6 1281933 1.5338907560786605e+06 1.0981922249518156e+06 4.6826882888075784e-14 9.1947973656783486e+05 1.5338660124934330e+06 1.5906418239655357e+05 -999 2.37576045e-01 7.196327238e-01 -9.74751946e-02
 8 6 1281933 1.6170978105395029e+06 1.0508597674048245e+06 4.3779289087824742e-14 9.4699617325806385e+05 1.6343124951686556e+06 1.2475221370465837e+05 -999 2.49697627e-01 6.908950646e-01 -1.02414119e-01
 9 6 1281933 1.8465709713420670e+06 1.0966540426596713e+06 4.1495315948320110e-14 1.0027281129302355e+06 1.9326000411999060e+06 1.0687011642648029e+05 -999 2.59084384e-01 6.650172837e-01 -1.06010141e-01
 10 6 1281933 1.8703033124246842e+06 1.0289501673012013e+06 3.9840975948622068e-14 1.0211306010753406e+06 1.9442024174097923e+06 9.5103043953155182e+04 -999 2.65816280e-01 6.445420424e-01 -1.08557720e-01
 11 6 1281933 1.7379195044906281e+06 1.0435174036295407e+06 3.8330521682084940e-14 9.9028879967821331e+05 1.8085910864910169e+06 8.6782598633683170e+04 -999 2.71342703e-01 6.265587850e-01 -1.10697273e-01
 12 6 1281933 1.6065683730210057e+06 9.3693433613124827e+05 3.6644200191793982e-14 9.6163355013871391e+05 1.6297752104978359e+06 8.0098634825488160e+04 -999 2.77225267e-01 6.062605324e-01 -1.12858821e-01
 13 6 1281933 1.6428836802750309e+06 9.8361414284459106e+05 3.5332146318353197e-14 9.6900758133139566e+05 1.6804027766158881e+06 7.4581272727154341e+04 -999 2.81680820e-01 5.896404806e-01 -1.14468249e-01
 14 6 1281933 1.9025708137394784e+06 1.0841446501401833e+06 3.4195371907739570e-14 1.0332166041127974e+06 2.0115304482806183e+06 6.9885740643621306e+04 -999 2.85564309e-01 5.739986248e-01 -1.15946721e-01
 15 6 1281933 1.7603625161522531e+06 8.7652395096729370e+05 3.3497861947374416e-14 9.6841296417704097e+05 1.8295126125676616e+06 6.5709160011395215e+04 -999 2.87581161e-01 5.650736849e-01 -1.16773424e-01
 16 6 1281933 1.6307369984188662e+06 8.9135885572180641e+05 3.2584644169521988e-14 9.4655211588064558e+05 1.6786655195892467e+06 6.1971567237169766e+04 -999 2.89715750e-01 5.546823859e-01 -1.17644403e-01
 17 6 1281933 1.5125240961874041e+06 8.7304207608571532e+05 3.1668567605425121e-14 9.1054891006772907e+05 1.5348299518257300e+06 5.8709753235548866e+04 -999 2.91577772e-01 5.446771074e-01 -1.18340031e-01
 18 6 1281933 1.6578189790576326e+06 9.2849836226360628e+05 3.0792533394050719e-14 9.3955848695411452e+05 1.7151678717785296e+06 5.5877018815058480e+04 -999 2.93347669e-01 5.340635971e-01 -1.18919383e-01
 19 6 1281933 1.6264581438574153e+06 8.1425863894456532e+05 3.0209617401978612e-14 9.2390404081989860e+05 1.6673289394727994e+06 5.3302480091086065e+04 -999 2.94445817e-01 5.267398227e-01 -1.19218933e-01
 20 6 1281933 1.7928556872859204e+06 9.3695252880191524e+05 2.9707694549514826e-14 9.3525362974695233e+05 1.8983051457609741e+06 5.0969483282731504e+04 -999 2.95446963e-01 5.196229789e-01 -1.19471368e-01
 21 6 1281933 1.5195796286780185e+06 8.1204434146674839e+05 2.9099931814643104e-14 8.7552570647979516e+05 1.5817964756170351e+06 4.8150878001284400e+04 -999 2.96315537e-01 5.122872764e-01 -1.19676361e-01
 22 6 1281933 1.4159352655510139e+06 8.0535061413532728e+05 2.8542966248183599e-14 8.4510190103385900e+05 1.4392351114681808e+06 4.5691079326677675e+04 -999 2.97124787e-01 5.048735932e-01 -1.19868000e-01
 23 6 1281933 1.4806730400894796e+06 7.7672672129552939e+05 2.8077944623312849e-14 8.5017742211391230e+05 1.5126789046471301e+06 4.3524353379887762e+04 -999 2.97879486e-01 4.973566596e-01 -1.20055187e-01
 24 6 1281933 1.5196536783135717e+06 7.5972955207313807e+05 2.7741161292262300e-14 8.3619602772127325e+05 1.5776674152314106e+06 4.1598483941861079e+04 -999 2.98394192e-01 4.917442623e-01 -1.20189425e-01
 25 6 1281933 1.7452215761132478e+06 9.8019241629542748e+05 2.7462763927342469e-14 8.8991246036581369e+05 1.8771197564326599e+06 3.9889911215752814e+04 -999 2.98921688e-01 4.856580701e-01 -1.20331248e-01
 26 6 1281933 1.4660239571791135e+06 8.3667228150285874e+05 2.7015837646854747e-14 8.1108234857811744e+05 1.5612064939628257e+06 3.7797213751264710e+04 -999 2.99286942e-01 4.806666311e-01 -1.20425384e-01
 27 6 1281933 1.2991351022437508e+06 7.2434679091908620e+05 2.6580767509851149e-14 7.6507705888554605e+05 1.3334759848868032e+06 3.5902851700443600e+04 -999 2.99691888e-01 4.750335190e-01 -1.20529754e-01
 28 6 1281933 1.3124718234435711e+06 7.0436094136592292e+05 2.6233302543808798e-14 7.5330206952270912e+05 1.3388129475338734e+06 3.4222680878822634e+04 -999 3.00088998e-01 4.694039958e-01 -1.20629622e-01
 29 6 1281933 1.3983098960899652e+06 7.1659278080622177e+05 2.6021200096123674e-14 7.5042918875345471e+05 1.4648218861416865e+06 3.2727354600207080e+04 -999 3.00405689e-01 4.648714766e-01 -1.20707164e-01
 30 6 1281933 1.5983034157278375e+06 9.0464062040279340e+05 2.5851631812277375e-14 7.9185419204891264e+05 1.7275202559865206e+06 3.1393506380809587e+04 -999 3.00727417e-01 4.602513020e-01 -1.20785344e-01
 31 6 1281933 1.3349386904007741e+06 7.6932666394969355e+05 2.5472900589565045e-14 7.2139677961216914e+05 1.4337253806089498e+06 2.9802485126401440e+04 -999 3.00968278e-01 4.562811445e-01 -1.20840084e-01
 32 6 1281933 1.1552327336556199e+06 6.5137605781025812e+05 2.5070970396366027e-14 6.7200963839216228e+05 1.1958199381912972e+06 2.8365965298668445e+04 -999 3.01236937e-01 4.518320932e-01 -1.20902695e-01
 33 6 1281933 1.1658106314750586e+06 6.3537131012941361e+05 2.4715067946533266e-14 6.5617662387587398e+05 1.1939763425797233e+06 2.7049059773609002e+04 -999 3.01526110e-01 4.470161116e-01 -1.20972404e-01
 34 6 1281933 1.2429802664800345e+06 6.2279540743473603e+05 2.4515094475637699e-14 6.5752458244213380e+05 1.2959946868710804e+06 2.5868185272573741e+04 -999 3.01757504e-01 4.431365100e-01 -1.21030344e-01
 35 6 1281933 1.3511741413987260e+06 7.1501868292096828e+05 2.4420667006165634e-14 6.6522130664376705e+05 1.4514091562097305e+06 2.4806469975123047e+04 -999 3.01952345e-01 4.398482512e-01 -1.21080554e-01
 36 6 1281933 1.1510638829667890e+06 6.1705452132014022e+05 2.4160001019007210e-14 6.1667871787773783e+05 1.2298443931725365e+06 2.3510446296409398e+04 -999 3.02127597e-01 4.365022601e-01 -1.21123929e-01
 37 6 1281933 9.9184040765301860e+05 5.6233437326865597e+05 2.3879358842303058e-14 5.7210238278716977e+05 1.0269009754505351e+06 2.2347712591101816e+04 -999 3.02337219e-01 4.325511152e-01 -1.21177208e-01
 38 6 1281933 9.8134609642864077e+05 5.4046405294087075e+05 2.3698693386660044e-14 5.5097750479237351e+05 1.0006752810844650e+06 2.1304040939001643e+04 -999 3.02552729e-01 4.285479118e-01 -1.21233389e-01
 39 6 1281933 1.0827278736324739e+06 5.7069792274742888e+05 2.3658830819125096e-14 5.5312736821037368e+05 1.1355959038699400e+06 2.0356332893653653e+04 -999 3.02738776e-01 4.251440799e-01 -1.21282815e-01
 40 6 1281933 1.2263254958097229e+06 6.8167053632054781e+05 2.3719513224309356e-14 5.7438190060629474e+05 1.3242127767476174e+06 1.9493746210131878e+04 -999 3.02910291e-01 4.220438134e-01 -1.21328898e-01
 41 6 1281933 1.0254033689650407e+06 5.7599073257146718e+05 2.3450168727022905e-14 5.2473131552468473e+05 1.1084412238937803e+06 1.8488680296183928e+04 -999 3.03051476e-01 4.192328068e-01 -1.21364581e-01
 42 6 1281933 8.5714842808604613e+05 4.8709894126015779e+05 2.3137061974339480e-14 4.8203382217336178e+05 8.9573943442485493e+05 1.7582322876433434e+04 -999 3.03220376e-01 4.159534553e-01 -1.21407843e-01
 43 6 1281933 8.2920552403339534e+05 4.6232046541972173e+05 2.2864484648855690e-14 4.5947231296815083e+05 8.4238475869330345e+05 1.6768553559576874e+04 -999 3.03408434e-01 4.123984625e-01 -1.21456639e-01
 44 6 1281933 9.1019640618434479e+05 4.7902140395365917e+05 2.2743138941671188e-14 4.5884023762241786e+05 9.4801937751502614e+05 1.6035567727229942e+04 -999 3.03571604e-01 4.093912975e-01 -1.21499475e-01
 45 6 1281933 1.0116743019923661e+06 5.5544199989937816e+05 2.2716313114115455e-14 4.6785949690984288e+05 1.0884384988964857e+06 1.5365800522561807e+04 -999 3.03709687e-01 4.068920002e-01 -1.21536056e-01
 46 6 1281933 8.5994218867065560e+05 4.6685177230513917e+05 2.2495828974852451e-14 4.3127060855824308e+05 9.2735699921329436e+05 1.4523198990214825e+04 -999 3.03832908e-01 4.044694622e-01 -1.21566881e-01
 47 6 1281933 7.1529343593497470e+05 4.0802027608489746e+05 2.2225740156713417e-14 3.9525612419700861e+05 7.5088688668726897e+05 1.3761355215376952e+04 -999 3.03984140e-01 4.015697909e-01 -1.21605343e-01
 48 6 1281933 6.7317250010871375e+05 3.7540508134687925e+05 2.1990084924069049e-14 3.7171302031188295e+05 6.8150266242622433e+05 1.3080200569383425e+04 -999 3.04151004e-01 3.984546766e-01 -1.21648528e-01
 49 6 1281933 7.3269292344430368e+05 3.8730166217798600e+05 2.1880988667527026e-14 3.6717002899675723e+05 7.5494376890703186e+05 1.2468711212264327e+04 -999 3.04304775e-01 3.956542349e-01 -1.21688987e-01
 50 6 1281933 8.1571344303230545e+05 4.4189792661613959e+05 2.1890492392179064e-14 3.7224628359901096e+05 8.6860013446010486e+05 1.1914016802058883e+04 -999 3.04437027e-01 3.932901549e-01 -1.21724281e-01
 51 6 1281933 6.9533075627713115e+05 3.7384852194154361e+05 2.1702210561384304e-14 3.4303581316551170e+05 7.4626805885222217e+05 1.1209927061261376e+04 -999 3.04554308e-01 3.910401544e-01 -1.21754188e-01
 52 6 1281933 5.7651947970987484e+05 3.2623215131411178e+05 2.1473534210233388e-14 3.1370545163798868e+05 6.0727270409253612e+05 1.0576996625612634e+04 -999 3.04694547e-01 3.884155739e-01 -1.21790547e-01
 53 6 1281933 5.3185257844981551e+05 2.9961568928396812e+05 2.1268395273272738e-14 2.9222990367000789e+05 5.3951612961570430e+05 1.0006828136428636e+04 -999 3.04853555e-01 3.855172834e-01 -1.21832477e-01
 54 6 1281933 5.7135272927815386e+05 3.0246501831538527e+05 2.1181996710071461e-14 2.8521666098892596e+05 5.8515695312789467e+05 9.4937718217522252e+03 -999 3.05006139e-01 3.828079530e-01 -1.21873403e-01
 55 6 1281933 6.3109536641591915e+05 3.3866212967862858e+05 2.1207803838183203e-14 2.8643947991226584e+05 6.6696836087733984e+05 9.0380851687881259e+03 -999 3.05141170e-01 3.804608141e-01 -1.21910235e-01
 56 6 1281933 5.4218360961100424e+05 2.9160859987458383e+05 2.1019646713155239e-14 2.6483946869827382e+05 5.7948459614592581e+05 8.4619102245105732e+03 -999 3.05255870e-01 3.783572268e-01 -1.21940609e-01
 57 6 1281933 4.4744518659959571e+05 2.5393166742639619e+05 2.0780785582104244e-14 2.4007544596127700e+05 4.7323290498772892e+05 7.9398681575353139e+03 -999 3.05399294e-01 3.758276766e-01 -1.21978939e-01
 58 6 1281933 4.0456795204871893e+05 2.3041614959527468e+05 2.0558986960556449e-14 2.2026723474211115e+05 4.1318740898341214e+05 7.4665322440070840e+03 -999 3.05562874e-01 3.730145916e-01 -1.22023536e-01
 59 6 1281933 4.2271158658702410e+05 2.2813062589248377e+05 2.0458939866241887e-14 2.1098816396648349e+05 4.3161336608524661e+05 7.0520157812519055e+03 -999 3.05721232e-01 3.703579172e-01 -1.22067714e-01
 60 6 1281933 4.5397583388443157e+05 2.4078998115912412e+05 2.0483909169402832e-14 2.0772757045530507e+05 4.7389706812721910e+05 6.6885039548271743e+03 -999 3.05863474e-01 3.680166433e-01 -1.22108454e-01
 61 6 1281933 3.9257178536417801e+05 2.1368385184829493e+05 2.0298499098561463e-14 1.9179855719712094e+05 4.1607599359804607e+05 6.1875037565192324e+03 -999 3.05984685e-01 3.659430742e-01 -1.22142854e-01
 62 6 1281933 3.2509785723604151e+05 1.8901283241130548e+05 2.0064955981508134e-14 1.7404674128800596e+05 3.4394678018431546e+05 5.7600357705338429e+03 -999 3.06131367e-01 3.634777319e-01 -1.22185127e-01
 63 6 1281933 2.8854290205768088e+05 1.7084481215385356e+05 1.9826986823844282e-14 1.5823275633376991e+05 2.9690197447890573e+05 5.3763962238225859e+03 -999 3.06302250e-01 3.606578260e-01 -1.22235279e-01
 64 6 1281933 2.9247837904615852e+05 1.6545811346885274e+05 1.9700083844815192e-14 1.4911162914765757e+05 2.9894741643774288e+05 5.0399505263454921e+03 -999 3.06468382e-01 3.579612200e-01 -1.22285251e-01
 65 6 1281933 3.0467910694527574e+05 1.6736432902962514e+05 1.9692338447463562e-14 1.4399296777492095e+05 3.1564510200366605e+05 4.7479383859276613e+03 -999 3.06617619e-01 3.555622277e-01 -1.22331632e-01
 66 6 1281933 2.6482815479493910e+05 1.5187924192641131e+05 1.9517292981289598e-14 1.3332072132859711e+05 2.7866742603531491e+05 4.3456279394870862e+03 -999 3.06740297e-01 3.534884998e-01 -1.22369037e-01
 67 6 1281933 2.1934751119407834e+05 1.3690425240036024e+05 1.9296971910873955e-14 1.2102084912089717e+05 2.3150103561205315e+05 4.0062766456134209e+03 -999 3.06888916e-01 3.509999236e-01 -1.22414754e-01
 68 6 1281933 1.9063678296274430e+05 1.2475361903380645e+05 1.9046596378530982e-14 1.0918156177568575e+05 1.9708404996032108e+05 3.7230738538203464e+03 -999 3.07063285e-01 3.481059651e-01 -1.22469144e-01
 69 6 1281933 1.8650460173973127e+05 1.1891043159773463e+05 1.8911269763048471e-14 1.0119292487704639e+05 1.9111240478733848e+05 3.4510911136123618e+03 -999 3.07232836e-01 3.453084725e-01 -1.22523450e-01
 70 6 1281933 1.8748984210705120e+05 1.1604227339240664e+05 1.8896851740639563e-14 9.5729281193947245e+04 1.9328640232159189e+05 3.2273008531207315e+03 -999 3.07385141e-01 3.427941159e-01 -1.22574393e-01
 71 6 1281933 1.6360822858572626e+05 1.0746543520487918e+05 1.8723321612467448e-14 8.8921201371637813e+04 1.7113453710951525e+05 2.9415880204507207e+03 -999 3.07504499e-01 3.406837906e-01 -1.22612473e-01
 72 6 1281933 1.3551806592989233e+05 9.8674062682461576e+04 1.8494686337881909e-14 8.0860079388319835e+04 1.4245952067226343e+05 2.6923267056328609e+03 -999 3.07649483e-01 3.381314364e-01 -1.22658997e-01
 73 6 1281933 1.1503252559906230e+05 9.0741626631161460e+04 1.8234993936370002e-14 7.2484817540795964e+04 1.1913547801241980e+05 2.4764746095335786e+03 -999 3.07821324e-01 3.351152750e-01 -1.22714953e-01
 74 6 1281933 1.0772218085846117e+05 8.5543794542322343e+04 1.8059095192272732e-14 6.6022665685397762e+04 1.1052669385418778e+05 2.2940619102084934e+03 -999 3.07988573e-01 3.321765912e-01 -1.22771407e-01
 75 6 1281933 1.0365497501334034e+05 8.1700335567201124e+04 1.7992882741869290e-14 6.1066395556223135e+04 1.0638809887074349e+05 2.1391960657944664e+03 -999 3.08138667e-01 3.295188011e-01 -1.22825333e-01
 76 6 1281933 9.0639100608168577e+04 7.6728026891131987e+04 1.7833036796086695e-14 5.5736113070776657e+04 9.4095759630757093e+04 1.9300667753588987e+03 -999 3.08251520e-01 3.272715365e-01 -1.22861324e-01
 77 6 1281933 7.5048595276455555e+04 7.1323229293312223e+04 1.7604006234245459e-14 4.9540467843170765e+04 7.8217015404305421e+04 1.7581258641359434e+03 -999 3.08389041e-01 3.245186960e-01 -1.22905148e-01
 78 6 1281933 6.2166094486966947e+04 6.5911731261216730e+04 1.7328187131990637e-14 4.2955318929291570e+04 6.4040387278760805e+04 1.6202138738376436e+03 -999 3.08553313e-01 3.211984441e-01 -1.22958154e-01
 79 6 1281933 5.5317256003613984e+04 6.1680070607501635e+04 1.7109506951792508e-14 3.7639763266744289e+04 5.6454626900328141e+04 1.5108953077425206e+03 -999 3.08712485e-01 3.179172170e-01 -1.23011924e-01
 80 6 1281933 5.0546981445239646e+04 5.8284118938164058e+04 1.6983610966999106e-14 3.3569129464624413e+04 5.1370486264478539e+04 1.4230830916000345e+03 -999 3.08854301e-01 3.148988463e-01 -1.23064144e-01
 81 6 1281933 4.3929319400402528e+04 5.4986846671255116e+04 1.6800150366852667e-14 3.0438814505482846e+04 4.4966239124494801e+04 1.2955757099067655e+03 -999 3.08945996e-01 3.121468192e-01 -1.23084510e-01
 82 6 1281933 3.6152749130854289e+04 5.1302201164716214e+04 1.6571678142296068e-14 2.6870726892453156e+04 3.7076631616608982e+04 1.2231537323931925e+03 -999 3.09053775e-01 3.086777235e-01 -1.23104762e-01
 83 6 1281933 2.9431904973559769e+04 4.7492929091659964e+04 1.6265911752217856e-14 2.3195944499232821e+04 2.9998173609768695e+04 1.2266094748086387e+03 -999 3.09175727e-01 3.043627153e-01 -1.23122711e-01
 84 6 1281933 2.5536954712572726e+04 4.4444026498334650e+04 1.5991515132768687e-14 2.0456167280834732e+04 2.6003536932289058e+04 1.3053705094287104e+03 -999 3.09283837e-01 2.999913783e-01 -1.23134412e-01
 85 6 1281933 2.3179484899220457e+04 4.2101566927621476e+04 1.5764122165481655e-14 1.8630779636822441e+04 2.3730290589858883e+04 1.4883405427779160e+03 -999 3.09372079e-01 2.958205503e-01 -1.23142309e-01
 86 6 1281933 2.0353111191094104e+04 3.9582591785984332e+04 1.5548354047434254e-14 1.6951412665937474e+04 2.1210198502325751e+04 1.9293682407128372e+03 -999 3.09423836e-01 2.911832762e-01 -1.23076415e-01
 87 6 1281933 1.7678253557884731e+04 3.6789705198392418e+04 1.5228192463019320e-14 1.5305087170179262e+04 1.8907990002334594e+04 2.6507827265720925e+03 -999 3.09528199e-01 2.850339574e-01 -1.22984419e-01
 88 6 1281933 1.6321890658988805e+04 3.4203785059086484e+04 1.4862361900021018e-14 1.4068163295985958e+04 1.8035688132205778e+04 3.8457092714357627e+03 -999 3.09747726e-01 2.771673396e-01 -1.22872985e-01
 89 6 1281933 1.6243240478772188e+04 3.2579980055912583e+04 1.4556750105700048e-14 1.3512561831828089e+04 1.8384597565697128e+04 7.8896138140932053e+03 -999 3.10066675e-01 2.690294505e-01 -1.22798617e-01
 90 6 1281933 1.6620271312182871e+04 3.1841816645406110e+04 1.4429838243187470e-14 1.3461723867100543e+04 1.9076436037208292e+04 2.1613433254355961e+04 -999 3.10455566e-01 2.608811166e-01 -1.22805892e-01
 91 6 1281933 1.5902641351891352e+04 2.9209755596678409e+04 1.4033135787346917e-14 1.2786204863104302e+04 1.8471835089156553e+04 8.7224644383412218e+04 -999 3.11114534e-01 2.489510544e-01 -1.23027146e-01
 92 6 1281933 1.6356483131571016e+04 2.7742732187716443e+04 1.3912064157851540e-14 1.2533259857913410e+04 1.8920176947909677e+04 2.3777486204663033e+05 -999 3.11983722e-01 2.315511480e-01 -1.23675609e-01
 93 6 1281933 1.7483366250327996e+04 3.7274222441431695e+04 1.4075167845880623e-14 1.2834493173114621e+04 2.1849521495552501e+04 3.4563252140774002e+05 -999 3.12546218e-01 2.100413998e-01 -1.25072523e-01
 94 6 1281933 1.7308175938933211e+04 4.0087010587193872e+04 1.3640857235191152e-14 1.2854243778261449e+04 2.4739937451311987e+04 3.4226678658742382e+05 -999 3.12396080e-01 2.051973625e-01 -1.25514235e-01
 95 6 1281933 1.7238913322437635e+04 3.8416078046069430e+04 1.3452486104245589e-14 1.3139131704712727e+04 2.5808526784165650e+04 3.9870677132235485e+05 -999 3.12251955e-01 2.023999749e-01 -1.25773688e-01
 96 6 1281933 1.6527432237194869e+04 2.1765124650373615e+04 4.6904689387371563e-13 1.1814752397632588e+04 1.8128240527927464e+04 8.6556184069497697e+05 -999 3.11649739e-01 1.801422925e-01 -1.27811109e-01
 97 6 1281933 1.5943656109714371e+04 2.1303144166135346e+04 6.9186341304842700e-13 1.0965404742211520e+04 1.7029418215695285e+04 8.5614488102357893e+05 -999 3.09322795e-01 1.602993140e-01 -1.29765218e-01
 98 6 1281933 1.5554049813017493e+04 5.5226449952461437e+04 7.1945056991364345e-13 1.0874728245241986e+04 2.1337462781847658e+04 6.2369525793632795e+05 -999 3.04728278e-01 1.429552989e-01 -1.30974344e-01
 99 6 1281933 1.5408536244091754e+04 7.2290049598310361e+04 7.1187004965823224e-13 1.1495252201606145e+04 2.6618622102806370e+04 4.7037358484049636e+05 -999 3.04016388e-01 1.414442549e-01 -1.30973587e-01
 100 6 1281933 1.5259137901530561e+04 8.3691978069858684e+04 7.0780373993835902e-13 1.1763317950801906e+04 2.9761080024528310e+04 3.5785211650769995e+05 -999 3.03646806e-01 1.406926242e-01 -1.30966013e-01
 101 6 1281933 1.4430991753135711e+04 2.5137741930636461e+04 5.5134477546647583e-13 9.2484627222169784e+03 1.4967610606307759e+04 1.3818263009487654e+05 -999 2.99474318e-01 1.304208666e-01 -1.31085499e-01
 102 6 1281933 1.3552395404806630e+04 2.3596333835869085e+04 5.2780868517355059e-13 8.8794861465962367e+03 1.4038660840061028e+04 9.2170399977533933e+04 -999 2.94481358e-01 1.217328201e-01 -1.30667444e-01
 103 6 1281933 1.2914585779096953e+04 2.2289392819614237e+04 4.7246077969428212e-13 8.5965626942285762e+03 1.3276681229288850e+04 7.4677162609153544e+04 -999 2.90828729e-01 1.163708151e-01 -1.30004225e-01
 104 6 1281933 1.2621542752199382e+04 2.1451224124364515e+04 4.4783534077372547e-13 8.3558851163698037e+03 1.2930844350593714e+04 6.4223611804880420e+04 -999 2.89092732e-01 1.138746247e-01 -1.29565980e-01
 105 6 1281933 1.2523169342440258e+04 2.0894074541423797e+04 4.3240632563538757e-13 8.1182287981568943e+03 1.2791452961934216e+04 5.6212979951649882e+04 -999 2.87589059e-01 1.116694142e-01 -1.29129329e-01
 106 6 1281933 1.1280412634595879e+04 1.8217404422794138e+04 6.2853375836226809e-13 7.0967020186226973e+03 1.1385882215768324e+04 5.2372949894122481e+04 -999 2.87268939e-01 1.074737565e-01 -1.28383249e-01
 107 6 1281933 1.0162065790141358e+04 1.5198578091772397e+04 1.0532831418983761e-12 6.2132805498914940e+03 9.9761892082971990e+03 3.2120196597949587e+04 -999 2.89272026e-01 1.021835428e-01 -1.28018411e-01
 108 6 1281933 9.6930607528398359e+03 1.3479952898993253e+04 1.2653368949165326e-12 5.9421030299231070e+03 9.3260853722242591e+03 3.9969004203448188e+04 -999 2.95059020e-01 9.760704459e-02 -1.28834698e-01
 109 6 1281933 9.9161596330115917e+03 1.3361049664581718e+04 1.2980095977435462e-12 5.9271134884762396e+03 9.4686363398411522e+03 6.7764290285319832e+04 -999 3.01706304e-01 9.494002206e-02 -1.30348871e-01
 110 6 1281933 9.6920240008874698e+03 1.3217776255565823e+04 1.2995516495157716e-12 5.9223080768062655e+03 9.2657896837867083e+03 5.0786197854959930e+04 -999 3.06479645e-01 9.363181484e-02 -1.31575123e-01
 111 6 1281933 7.9038417919363819e+03 1.0951221356213655e+04 3.4265845367226230e-12 5.0969064286190878e+03 7.5087040046877937e+03 1.0013689440596737e+05 -999 3.25188169e-01 9.009075584e-02 -1.36831449e-01
 112 6 1281933 6.6960059150153920e+03 8.8151216057314796e+03 5.7985870872964911e-12 4.1807678721542825e+03 6.4171174936015568e+03 1.8180973138368066e+05 -999 3.58557783e-01 8.577987136e-02 -1.46889097e-01
 113 6 1281933 5.9648412743718709e+03 8.6061393720213455e+03 4.7599179370479836e-12 3.4297550259766117e+03 6.1129134952789682e+03 1.8849199905953644e+05 -999 4.03368158e-01 8.181038146e-02 -1.61072773e-01
 114 6 1281933 5.4885749215558662e+03 9.6514279062120750e+03 3.9367214867034261e-12 3.4136092875117283e+03 7.2524854705533926e+03 1.8306247144510387e+05 -999 4.36349634e-01 7.952027627e-02 -1.71372668e-01
 115 6 1281933 4.8386238399700724e+03 8.4193352530728134e+03 3.0727826444601207e-12 3.1224984902302681e+03 7.4155654423187061e+03 1.4109343217336648e+05 -999 4.55486190e-01 7.818009658e-02 -1.76907541e-01
 116 6 1281933 3.7361411123843204e+03 4.3182090227143808e+03 5.5657063175822567e-12 1.9883443438294412e+03 3.6153548166891219e+03 2.9644193870080571e+05 -999 5.22943819e-01 7.392021990e-02 -1.93780096e-01
 117 6 1281933 3.4729905693065484e+03 3.7486192684625894e+03 6.6419539705586486e-12 1.3047570154882781e+03 3.3360403815392710e+03 1.3328619207916694e+05 -999 5.92718129e-01 7.038363708e-02 -2.06395950e-01
 118 6 1281933 3.3566727664475929e+03 3.4618643880264503e+03 7.4574672003107220e-12 1.0587073664627246e+03 3.2164348614286141e+03 1.2988030053456938e+05 -999 6.24140536e-01 6.910049260e-02 -2.09780405e-01
 119 6 1281933 3.2882814617234758e+03 3.3280234302568169e+03 7.8785204562207133e-12 9.4181900692704107e+02 3.1460272154568133e+03 9.8468380147101241e+04 -999 6.42799801e-01 6.850655326e-02 -2.11130990e-01
 120 6 1281933 3.2421603580239334e+03 3.2461623376332855e+03 8.4887526736974338e-12 8.7574588460907398e+02 3.0982525508077497e+03 8.9072369217432031e+04 -999 6.56195048e-01 6.815957269e-02 -2.11825389e-01
 121 6 1281933 2.8743714647064294e+03 3.0250601351526329e+03 9.6108898526936680e-12 7.2304809396657981e+02 2.7231760534767345e+03 8.2485806386459139e+04 -999 6.90172613e-01 6.837632862e-02 -2.12045528e-01
 122 6 1281933 2.6379838806256189e+03 2.8343937939812686e+03 1.8324720325178569e-11 6.2317776274532241e+02 2.4815444940352077e+03 3.9501224942002220e+04 -999 7.23422868e-01 6.874563555e-02 -2.11513578e-01
 123 6 1281933 2.5184180565347260e+03 2.6743495722749208e+03 1.2041667835399510e-11 5.5996709783479264e+02 2.3515541129430421e+03 2.4820722952480344e+04 -999 7.51151378e-01 6.912072909e-02 -2.10312569e-01
 124 6 1281933 2.4677109568126693e+03 2.6021777125349286e+03 1.0022178548644644e-11 5.3677618924827766e+02 2.2932113289294552e+03 1.4402778230797601e+04 -999 7.67051970e-01 6.939159427e-02 -2.09285910e-01
 125 6 1281933 2.4260135459248813e+03 2.5598341368381275e+03 9.0347044940972990e-12 5.1406872097448695e+02 2.2488536762356480e+03 9.6401790067626243e+03 -999 7.79450275e-01 6.961543195e-02 -2.08358821e-01
 126 6 1281933 2.3650910695606754e+03 2.5972813937394494e+03 9.4401981234236480e-12 5.4395332940384992e+02 2.1904172144748663e+03 8.2236839268328786e+03 -999 7.90990927e-01 7.007023028e-02 -2.08185031e-01
 127 6 1281933 2.3238258804469192e+03 2.7199388939351543e+03 9.6294701766766146e-12 6.6868972892048430e+02 2.1504341612643916e+03 7.6163280737110626e+03 -999 8.05516519e-01 7.063686980e-02 -2.07746365e-01
 128 6 1281933 2.3000467475684759e+03 2.9057514721711418e+03 9.9363671877200531e-12 8.7569337693968657e+02 2.1284532261659760e+03 8.3010848669983552e+03 -999 8.21373591e-01 7.116444487e-02 -2.07100934e-01
 129 6 1281933 2.3133875867049965e+03 3.1390633136810134e+03 1.0037491551328009e-11 1.1333715523127357e+03 2.1347315601551077e+03 9.8387857671508718e+03 -999 8.39521603e-01 7.164361018e-02 -2.06196145e-01
 130 6 1281933 2.3587166373616078e+03 3.1722793761208004e+03 9.4623267336312697e-12 1.2156619670002381e+03 2.1654977979911232e+03 9.5781156401988210e+03 -999 8.51178864e-01 7.186781159e-02 -2.05421825e-01
 131 6 1281933 2.3106146552598148e+03 3.1329365415586581e+03 8.8950088280789696e-12 1.2025257037556516e+03 2.1272795377039615e+03 9.9959644382062852e+03 -999 8.58396234e-01 7.207904749e-02 -2.05190566e-01
 132 6 1281933 2.2752468468948982e+03 3.0154793989015429e+03 7.9798406220044482e-12 1.1644269427858042e+03 2.0981506158888737e+03 1.0178302441487253e+04 -999 8.67600952e-01 7.232241263e-02 -2.04791245e-01
 133 6 1281933 2.2494405661383844e+03 2.8514483483204363e+03 6.9169813400649334e-12 1.0919024566397286e+03 2.0721710111749608e+03 1.0361813833667082e+04 -999 8.78577009e-01 7.258150414e-02 -2.04155346e-01
 134 6 1281933 2.2482890127013466e+03 2.6894536213664019e+03 6.0319622969552631e-12 9.9920360699045409e+02 2.0600608302048572e+03 1.0628233354724760e+04 -999 8.90446238e-01 7.282792126e-02 -2.03376223e-01
 135 6 1281933 2.2536516575131272e+03 2.6382754179713256e+03 5.7342945473463537e-12 9.5449318527132061e+02 2.0574371370569802e+03 1.0707587097173649e+04 -999 8.98450052e-01 7.296220551e-02 -2.02794290e-01
 136 6 1281933 2.2314493082323293e+03 2.6538297601589238e+03 5.4211982627145118e-12 1.0052438223994623e+03 2.0383279322964056e+03 1.1028086626222215e+04 -999 9.04120207e-01 7.306375921e-02 -2.02479943e-01
 137 6 1281933 2.2171085733838190e+03 2.6641024482831995e+03 5.0741749088970484e-12 1.0512518177191716e+03 2.0221825729896293e+03 1.1381288016135981e+04 -999 9.11024228e-01 7.317720835e-02 -2.02048025e-01
 138 6 1281933 2.2062808950475528e+03 2.6624930080241998e+03 4.8035056390718551e-12 1.0861360829163259e+03 2.0091468106046113e+03 1.1870648419461473e+04 -999 9.18827185e-01 7.328207064e-02 -2.01492029e-01
 139 6 1281933 2.2141918833967111e+03 2.6470977806175074e+03 4.6716695030291008e-12 1.1082118420592506e+03 2.0086422305028011e+03 1.2537485397584989e+04 -999 9.27931985e-01 7.336711609e-02 -2.00781319e-01
 140 6 1281933 2.2420515477534964e+03 2.6049590691360477e+03 4.6079984006422093e-12 1.1055450264246729e+03 2.0244262951437668e+03 1.1719203875183435e+04 -999 9.33827111e-01 7.338248124e-02 -2.00271224e-01