TITLE = "005.01 ALPHA 3.00 GRIDLEVEL 6"

VARIABLES = "ITERATION"  "GRID_LEVEL"  "GRID_SIZE"  "CONTINUITY"  "MOMENTUMX"  "MOMENTUMY"  "MOMENTUMZ"  "ENERGY"  "TURB1"  "TURB2"  "CL_TOT"  "CD_TOT"  "CM_TOT"

DATASETAUXDATA ParticipantID   = "005"
DATASETAUXDATA SubmissionDate  = "10-31-2024"
DATASETAUXDATA Name            = "Jeffrey A. Housman"
DATASETAUXDATA Email           = "jeffrey.a.housman@nasa.gov"
DATASETAUXDATA Institution     = "NASA Ames Research Center"
DATASETAUXDATA SolverName      = "LAVA Curvilinear"
DATASETAUXDATA BasicAlgorithm  = "RANS"
DATASETAUXDATA TurbulenceModel = "SA-neg"
DATASETAUXDATA GridId          = "Multiblock"
DATASETAUXDATA Discretization  = "Finite difference"
DATASETAUXDATA Order           = "2"
DATASETAUXDATA DistanceCalc    = "Exact"
DATASETAUXDATA Notes           = " "

ZONE T = "005.01 - Alpha 3.00 - Grid Level 6"
AUXDATA Tstatic         = "271.0"
AUXDATA Deltat          = "-999"
AUXDATA GridFileName    = "ONERA-OAT15A_230mmChord_780mmSpan_upZ_2024_06_25-Structured_23mm_Level-6.x"
AUXDATA Misc            = " "
 0 6 1281933 6.1779588955536357e+05 2.2284670202830932e+06 1.0839315234593015e-13 6.2396421413780877e+05 6.6753033713310957e+05 3.9256169698741874e+06 -999 1.76553938e-02 1.052619981e+00 -1.00022332e-02
 1 6 1281933 9.4434252197728958e+05 1.6273323353683699e+06 9.0821097931936352e-14 4.6136266955054615e+05 9.2158686079701979e+05 2.5539017777581760e+06 -999 4.80729929e-02 9.450425439e-01 -2.29859145e-02
 2 6 1281933 1.1619987548012114e+06 1.3655667020546738e+06 7.8080304949597552e-14 5.0483997596458631e+05 1.1165422685667553e+06 1.6689495965383190e+06 -999 8.63406433e-02 8.794566301e-01 -3.92834365e-02
 3 6 1281933 1.3478342081623748e+06 1.2062346976660783e+06 6.8501923484654051e-14 6.0431973137381882e+05 1.2940862050852622e+06 1.0970246989538204e+06 -999 1.22382203e-01 8.349009181e-01 -5.45710282e-02
 4 6 1281933 1.4997810131007298e+06 1.0983518781796126e+06 6.1129646997224492e-14 7.2470462304522435e+05 1.4558686133777690e+06 7.1554342540727917e+05 -999 1.54605021e-01 8.030343041e-01 -6.69106195e-02
 5 6 1281933 1.6629334617019305e+06 1.0959305180728624e+06 5.5370478631493868e-14 8.4857994008429721e+05 1.6591391823182208e+06 4.6345050027495431e+05 -999 1.78659851e-01 7.775230792e-01 -7.61092903e-02
 6 6 1281933 1.5037879337032980e+06 1.0994411340748230e+06 5.0941251354201668e-14 8.7947735016785935e+05 1.5036023623822059e+06 2.7810920042823942e+05 -999 1.95397955e-01 7.478644574e-01 -8.31834987e-02
 7 6 1281933 1.5302526356522001e+06 1.0938296545582151e+06 4.6812983308543194e-14 9.1239453142370970e+05 1.5302006912519354e+06 1.5879324182593822e+05 -999 2.09857385e-01 7.162001793e-01 -8.96834214e-02
 8 6 1281933 1.6140435192132678e+06 1.0470889866054597e+06 4.3766513506872379e-14 9.4019355269493558e+05 1.6313998586418466e+06 1.2453843858433283e+05 -999 2.20745990e-01 6.873429399e-01 -9.43604800e-02
 9 6 1281933 1.8450789743487211e+06 1.0939067587226699e+06 4.1483048969037604e-14 9.9672162383640686e+05 1.9315779308633460e+06 1.0668396825135149e+05 -999 2.29263690e-01 6.613560978e-01 -9.77885799e-02
 10 6 1281933 1.8680921561249171e+06 1.0254156738425434e+06 3.9831125754864154e-14 1.0151773170223960e+06 1.9421821950504510e+06 9.4916664270894180e+04 -999 2.35358876e-01 6.408117050e-01 -1.00215285e-01
 11 6 1281933 1.7358508200979307e+06 1.0409775930088020e+06 3.8320061930682643e-14 9.8462262310992042e+05 1.8067646865057542e+06 8.6602858343302534e+04 -999 2.40322012e-01 6.227843447e-01 -1.02246345e-01
 12 6 1281933 1.6040429890112251e+06 9.3402158833579090e+05 3.6636577460975426e-14 9.5591136732892564e+05 1.6273519707056675e+06 7.9945015669834858e+04 -999 2.45573201e-01 6.024481785e-01 -1.04305000e-01
 13 6 1281933 1.6411726811935115e+06 9.8157148028362659e+05 3.5325222397090708e-14 9.6364975561269431e+05 1.6789993587512725e+06 7.4448267033015349e+04 -999 2.49537363e-01 5.857981710e-01 -1.05847624e-01
 14 6 1281933 1.9013200385656052e+06 1.0821713105945289e+06 3.4192064932821802e-14 1.0283069564755550e+06 2.0104902197135058e+06 6.9769044754387636e+04 -999 2.53011974e-01 5.701414976e-01 -1.07274407e-01
 15 6 1281933 1.7589346232391852e+06 8.7425958041934704e+05 3.3492268354682383e-14 9.6311133812856185e+05 1.8284556479351814e+06 6.5595025222520679e+04 -999 2.54834597e-01 5.611998431e-01 -1.08076436e-01
 16 6 1281933 1.6288713531917797e+06 8.8908119826295110e+05 3.2575857760822832e-14 9.4156888449690701e+05 1.6769111815274118e+06 6.1866968554230982e+04 -999 2.56765786e-01 5.507830293e-01 -1.08921889e-01
 17 6 1281933 1.5104968494807102e+06 8.7129054327987437e+05 3.1658158176515981e-14 9.0551392366408766e+05 1.5328789413179872e+06 5.8617374894138113e+04 -999 2.58442463e-01 5.407614419e-01 -1.09598060e-01
 18 6 1281933 1.6569720886403737e+06 9.2702499282588204e+05 3.0779636004525782e-14 9.3501843003395316e+05 1.7146258438376253e+06 5.5788489322009329e+04 -999 2.60022670e-01 5.301328588e-01 -1.10163775e-01
 19 6 1281933 1.6249052183213159e+06 8.1199977903787920e+05 3.0194712454388431e-14 9.1923790249732567e+05 1.6658708808733327e+06 5.3221088946222451e+04 -999 2.60994271e-01 5.228001075e-01 -1.10458458e-01
 20 6 1281933 1.7926955342947124e+06 9.3644397805134463e+05 2.9691264547619715e-14 9.3088109440573771e+05 1.8986685169809151e+06 5.0897441085228857e+04 -999 2.61876242e-01 5.156752733e-01 -1.10707813e-01
 21 6 1281933 1.5183189859434224e+06 8.1060147926782398e+05 2.9085343680371059e-14 8.7104959442218486e+05 1.5808915970039119e+06 4.8086027589576028e+04 -999 2.62639418e-01 5.083403667e-01 -1.10912297e-01
 22 6 1281933 1.4145152616671454e+06 8.0393946032601711e+05 2.8526522706005040e-14 8.4076241316407255e+05 1.4379131479302112e+06 4.5633766770378090e+04 -999 2.63353188e-01 5.009188312e-01 -1.11105061e-01
 23 6 1281933 1.4790381799181856e+06 7.7480353868692543e+05 2.8061351575534620e-14 8.4596411190872348e+05 1.5109644679460910e+06 4.3473851373967555e+04 -999 2.64021160e-01 4.934041400e-01 -1.11293803e-01
 24 6 1281933 1.5188775309207565e+06 7.5864559860644618e+05 2.7720726991944426e-14 8.3200146252592711e+05 1.5772183368415809e+06 4.1549353033247236e+04 -999 2.64479700e-01 4.877848402e-01 -1.11429796e-01
 25 6 1281933 1.7466333387937229e+06 9.8211608718148293e+05 2.7437841652087446e-14 8.8680396246999083e+05 1.8795703831010584e+06 3.9842543623145801e+04 -999 2.64950887e-01 4.816842835e-01 -1.11573772e-01
 26 6 1281933 1.4660325255192027e+06 8.3726504382535699e+05 2.6990147950720101e-14 8.0749037234200689e+05 1.5619337355899969e+06 3.7752952320591998e+04 -999 2.65275898e-01 4.766962143e-01 -1.11670472e-01
 27 6 1281933 1.2982477667764651e+06 7.2345245257401501e+05 2.6552281055376496e-14 7.6143810766287125e+05 1.3328074821408037e+06 3.5864769494600718e+04 -999 2.65636148e-01 4.710620670e-01 -1.11777654e-01
 28 6 1281933 1.3115375948886368e+06 7.0333956394128106e+05 2.6199592437037041e-14 7.4971931761614082e+05 1.3379631869530724e+06 3.4190203322880639e+04 -999 2.65988781e-01 4.654331747e-01 -1.11880254e-01
 29 6 1281933 1.3980659173657577e+06 7.1606507680336700e+05 2.5987280451987094e-14 7.4692575371633004e+05 1.4649698697003582e+06 3.2698537879746200e+04 -999 2.66269855e-01 4.608977983e-01 -1.11960034e-01
 30 6 1281933 1.5983308337065454e+06 9.0443518846685137e+05 2.5817494201101812e-14 7.8868153088270384e+05 1.7277773553304160e+06 3.1365661721753415e+04 -999 2.66555049e-01 4.562810115e-01 -1.12040251e-01
 31 6 1281933 1.3342570449290734e+06 7.6888390971510578e+05 2.5437511664123581e-14 7.1806224371585855e+05 1.4332974457357368e+06 2.9775436060987409e+04 -999 2.66768932e-01 4.523074997e-01 -1.12097500e-01
 32 6 1281933 1.1542150727288206e+06 6.5040792637540726e+05 2.5033936338290822e-14 6.6874741615643667e+05 1.1948901787182263e+06 2.8340131721611386e+04 -999 2.67007599e-01 4.478561678e-01 -1.12162707e-01
 33 6 1281933 1.1653700866981233e+06 6.3459122647527780e+05 2.4683053330916394e-14 6.5311895593362441e+05 1.1936741813005509e+06 2.7026191038875433e+04 -999 2.67264738e-01 4.430365780e-01 -1.12235005e-01
 34 6 1281933 1.2427922777239925e+06 6.2200430180828669e+05 2.4481913128600256e-14 6.5461356607093709e+05 1.2960323684285765e+06 2.5848768075038235e+04 -999 2.67470441e-01 4.391573535e-01 -1.12294779e-01
 35 6 1281933 1.3518839980824366e+06 7.1550895865936216e+05 2.4383840236188160e-14 6.6245281411854725e+05 1.4526837752984266e+06 2.4789215023055902e+04 -999 2.67643844e-01 4.358665692e-01 -1.12346468e-01
 36 6 1281933 1.1509780013934856e+06 6.1686131635807815e+05 2.4124597670129382e-14 6.1395445828578214e+05 1.2301716013406874e+06 2.3493779250258001e+04 -999 2.67799545e-01 4.325208564e-01 -1.12391827e-01
 37 6 1281933 9.9119325926565810e+05 5.6183467625568283e+05 2.3844524126567376e-14 5.6936771940855903e+05 1.0264044888731388e+06 2.2331941953162321e+04 -999 2.67985841e-01 4.285679530e-01 -1.12447342e-01
 38 6 1281933 9.8088667814333853e+05 5.3992549467971851e+05 2.3670235696112238e-14 5.4834062315953069e+05 1.0003096074118336e+06 2.1289298729682047e+04 -999 2.68177183e-01 4.245650301e-01 -1.12505626e-01
 39 6 1281933 1.0829399508041251e+06 5.7052529199394130e+05 2.3635878006180869e-14 5.5068091532256803e+05 1.1360810993432719e+06 2.0342853837529980e+04 -999 2.68342334e-01 4.211601473e-01 -1.12556769e-01
 40 6 1281933 1.2273750441968369e+06 6.8235243901932682e+05 2.3696961859000138e-14 5.7230965949942009e+05 1.3257375505404745e+06 1.9482356925229218e+04 -999 2.68494583e-01 4.180577658e-01 -1.12604374e-01
 41 6 1281933 1.0257038454250698e+06 5.7626021601431142e+05 2.3426207539147824e-14 5.2253510697960242e+05 1.1091661913987419e+06 1.8478277366520750e+04 -999 2.68619619e-01 4.152471119e-01 -1.12641852e-01
 42 6 1281933 8.5678407981959719e+05 4.8679336178979819e+05 2.3115636757441620e-14 4.7978889129951975e+05 8.9557082665057667e+05 1.7572405072360227e+04 -999 2.68769241e-01 4.119667805e-01 -1.12687130e-01
 43 6 1281933 8.2892336956123891e+05 4.6196891350496630e+05 2.2844850038751427e-14 4.5729393184592703e+05 8.4217090592655702e+05 1.6759483518876565e+04 -999 2.68935800e-01 4.084108255e-01 -1.12737997e-01
 44 6 1281933 9.1039597466393537e+05 4.7888420409130718e+05 2.2725009357901915e-14 4.5681163720839442e+05 9.4841552209344041e+05 1.6027285569848527e+04 -999 2.69080265e-01 4.054035671e-01 -1.12782473e-01
 45 6 1281933 1.0125086026925256e+06 5.5597037996287004e+05 2.2699508804056771e-14 4.6601395771075797e+05 1.0896628382261833e+06 1.5358523919538737e+04 -999 2.69202587e-01 4.029029699e-01 -1.12820362e-01
 46 6 1281933 8.6021470267902291e+05 4.6694430313550128e+05 2.2476430501774064e-14 4.2941519581305370e+05 9.2796930473448616e+05 1.4516486524692491e+04 -999 2.69311578e-01 4.004797984e-01 -1.12852774e-01
 47 6 1281933 7.1508351445440133e+05 4.0781384018651064e+05 2.2205589136586993e-14 3.9340153061811911e+05 7.5086876735879749e+05 1.3754981134031246e+04 -999 2.69445320e-01 3.975798895e-01 -1.12893027e-01
 48 6 1281933 6.7291554375902319e+05 3.7508542749048671e+05 2.1972412431226972e-14 3.6990509855826118e+05 6.8128946960726136e+05 1.3074460838091736e+04 -999 2.69592891e-01 3.944642911e-01 -1.12938013e-01
 49 6 1281933 7.3282429933117086e+05 3.8713120585602691e+05 2.1868756098636450e-14 3.6548633376189618e+05 7.5518005518858205e+05 1.2463849266108780e+04 -999 2.69728913e-01 3.916629685e-01 -1.12979980e-01
 50 6 1281933 8.1633000543069141e+05 4.4212045928251505e+05 2.1882893528296043e-14 3.7071956512714591e+05 8.6943816248321417e+05 1.1909737106990444e+04 -999 2.69845970e-01 3.892974795e-01 -1.13016460e-01
 51 6 1281933 6.9551664679258433e+05 3.7379857412525261e+05 2.1692123307869462e-14 3.4149639536704146e+05 7.4667794872547872e+05 1.1205543329822995e+04 -999 2.69949609e-01 3.870458671e-01 -1.13047771e-01
 52 6 1281933 5.7633484791721916e+05 3.2598967862080981e+05 2.1465435853748328e-14 3.1216352078220207e+05 6.0722689560270833e+05 1.0572886595096630e+04 -999 2.70073489e-01 3.844201155e-01 -1.13085668e-01
 53 6 1281933 5.3167235427867190e+05 2.9932323023705982e+05 2.1266777158269650e-14 2.9072782501372788e+05 5.3937392185920302e+05 1.0003496135430809e+04 -999 2.70213941e-01 3.815207388e-01 -1.13129173e-01
 54 6 1281933 5.7148295486671629e+05 3.0227785430562886e+05 2.1179735181492656e-14 2.8381906530954578e+05 5.8535842587855412e+05 9.4911681265538282e+03 -999 2.70348755e-01 3.788107162e-01 -1.13171433e-01
 55 6 1281933 6.3153652065209765e+05 3.3871884248586296e+05 2.1209234704738082e-14 2.8516171316006151e+05 6.6755180129466683e+05 9.0353338510671347e+03 -999 2.70468172e-01 3.764629342e-01 -1.13209286e-01
 56 6 1281933 5.4233263645494950e+05 2.9149139668992994e+05 2.1020420037411541e-14 2.6355161938855995e+05 5.7978965335445188e+05 8.4592252091275823e+03 -999 2.70569492e-01 3.743577286e-01 -1.13240791e-01
 57 6 1281933 4.4735350573141780e+05 2.5372584043994686e+05 2.0783011112986085e-14 2.3885919364763817e+05 4.7325650440928590e+05 7.9379283202990846e+03 -999 2.70696386e-01 3.718269374e-01 -1.13280362e-01
 58 6 1281933 4.0447980860956025e+05 2.3020008014471206e+05 2.0565213746988403e-14 2.1913558699413444e+05 4.1313814192091895e+05 7.4649649736185993e+03 -999 2.70841179e-01 3.690114950e-01 -1.13326200e-01
 59 6 1281933 4.2286450810127181e+05 2.2800723670817385e+05 2.0465234899398184e-14 2.0997512464329795e+05 4.3182021975149435e+05 7.0504005453674854e+03 -999 2.70981414e-01 3.663534541e-01 -1.13371337e-01
 60 6 1281933 4.5438678444199706e+05 2.4083752203241046e+05 2.0495455587091243e-14 2.0683315450988102e+05 4.7442345343164366e+05 6.6873725881882092e+03 -999 2.71107646e-01 3.640096948e-01 -1.13412732e-01
 61 6 1281933 3.9281116162788094e+05 2.1366765844317715e+05 2.0309580937416585e-14 1.9094106132511655e+05 4.1644366663342633e+05 6.1864003548994178e+03 -999 2.71214914e-01 3.619350510e-01 -1.13447861e-01
 62 6 1281933 3.2513206665961933e+05 1.8893276280611497e+05 2.0074489055165737e-14 1.7322448220004101e+05 3.4408783472778380e+05 5.7587375857373845e+03 -999 2.71344682e-01 3.594679999e-01 -1.13490909e-01
 63 6 1281933 2.8853832312033419e+05 1.7073207632655275e+05 1.9841388393710721e-14 1.5746304687933566e+05 2.9694723076136218e+05 5.3756158364515150e+03 -999 2.71495916e-01 3.566457729e-01 -1.13541777e-01
 64 6 1281933 2.9261963163245237e+05 1.6539126461266153e+05 1.9713797416371448e-14 1.4842059269770872e+05 2.9913196700627723e+05 5.0391808704024734e+03 -999 2.71643153e-01 3.539468041e-01 -1.13592179e-01
 65 6 1281933 3.0496610465206532e+05 1.6738264821449984e+05 1.9709107122288083e-14 1.4338047787845219e+05 3.1600383236959414e+05 4.7472204590362662e+03 -999 2.71775752e-01 3.515455369e-01 -1.13638652e-01
 66 6 1281933 2.6500077377525769e+05 1.5186526154093552e+05 1.9535416836136310e-14 1.3274157088809652e+05 2.7892103800039814e+05 4.3450351367878438e+03 -999 2.71884177e-01 3.494703428e-01 -1.13676432e-01
 67 6 1281933 2.1938769278110150e+05 1.3686410828479310e+05 1.9308711798469818e-14 1.2047786758849880e+05 2.3161187462777743e+05 4.0056496436545531e+03 -999 2.72015420e-01 3.469798718e-01 -1.13722533e-01
 68 6 1281933 1.9064832871149684e+05 1.2470583081475993e+05 1.9065233362443807e-14 1.0868658216459055e+05 1.9713409306257509e+05 3.7226396724618676e+03 -999 2.72169482e-01 3.440832763e-01 -1.13777198e-01
 69 6 1281933 1.8660034398534356e+05 1.1888926554047603e+05 1.8930817005325280e-14 1.0075847834489954e+05 1.9123953749769417e+05 3.4508022248234092e+03 -999 2.72319622e-01 3.412830039e-01 -1.13831453e-01
 70 6 1281933 1.8765555302334428e+05 1.1605634385307856e+05 1.8912906388465944e-14 9.5352295674898720e+04 1.9349148049022385e+05 3.2271441647745655e+03 -999 2.72454954e-01 3.387667944e-01 -1.13881942e-01
 71 6 1281933 1.6370504392855018e+05 1.0746954875180339e+05 1.8737390740609361e-14 8.8575809647655406e+04 1.7127692911797768e+05 2.9414226670940266e+03 -999 2.72560001e-01 3.366543507e-01 -1.13920232e-01
 72 6 1281933 1.3553766615448811e+05 9.8671796369499949e+04 1.8508913157403930e-14 8.0551884903364713e+04 1.4251930105579519e+05 2.6922456576788823e+03 -999 2.72687485e-01 3.340995193e-01 -1.13966945e-01
 73 6 1281933 1.1503609434872030e+05 9.0742461490737187e+04 1.8252129665422109e-14 7.2223953493440480e+04 1.1916315224730804e+05 2.4765078252112335e+03 -999 2.72838765e-01 3.310803071e-01 -1.14022904e-01
 74 6 1281933 1.0776557999922113e+05 8.5558191190504614e+04 1.8071925366766441e-14 6.5812250027595932e+04 1.1059056871596804e+05 2.2941909575050440e+03 -999 2.72986571e-01 3.281387674e-01 -1.14078920e-01
 75 6 1281933 1.0372924040398712e+05 8.1727891147208808e+04 1.8015823015412783e-14 6.0898264866311860e+04 1.0648550904632080e+05 2.1393707491657788e+03 -999 2.73119976e-01 3.254783927e-01 -1.14131898e-01
 76 6 1281933 9.0678527629689444e+04 7.6754263463964555e+04 1.7850458616861975e-14 5.5586249537724085e+04 9.4163101455091193e+04 1.9302160937530020e+03 -999 2.73218687e-01 3.232293552e-01 -1.14168143e-01
 77 6 1281933 7.5044778869118949e+04 7.1348535197066085e+04 1.7621854158524731e-14 4.9408595109865775e+04 7.8241698375326378e+04 1.7582977900421013e+03 -999 2.73338892e-01 3.204742444e-01 -1.14212193e-01
 78 6 1281933 6.2141945720271127e+04 6.5938549603479289e+04 1.7343593169745567e-14 4.2841409423017561e+04 6.4042401036678639e+04 1.6203135540168987e+03 -999 2.73482832e-01 3.171511055e-01 -1.14265139e-01
 79 6 1281933 5.5294098680915195e+04 6.1709587883625994e+04 1.7124170246699433e-14 3.7542491671594194e+04 5.6459598351431850e+04 1.5108417518213296e+03 -999 2.73623171e-01 3.138669102e-01 -1.14318198e-01
 80 6 1281933 5.0523647787495189e+04 5.8317118898163790e+04 1.6987542920956676e-14 3.3480211855035341e+04 5.1378773633315330e+04 1.4228326075607301e+03 -999 2.73749213e-01 3.108460281e-01 -1.14368969e-01
 81 6 1281933 4.3889076366970898e+04 5.5020496760137597e+04 1.6806983072344074e-14 3.0357408287167375e+04 4.4962316206460258e+04 1.2947693338054544e+03 -999 2.73828261e-01 3.080943162e-01 -1.14389971e-01
 82 6 1281933 3.6093919591005026e+04 5.1339554707014329e+04 1.6573051054358555e-14 2.6801060444722007e+04 3.7058983707072031e+04 1.2217992612538922e+03 -999 2.73921289e-01 3.046272719e-01 -1.14411159e-01
 83 6 1281933 2.9360142166830265e+04 4.7535563330746219e+04 1.6274700687423452e-14 2.3139892073886673e+04 2.9969726103909314e+04 1.2243949879254153e+03 -999 2.74027707e-01 3.003161055e-01 -1.14430263e-01
 84 6 1281933 2.5466701286145453e+04 4.4491337503945819e+04 1.5989164782565737e-14 2.0414338238598866e+04 2.5974593923859269e+04 1.3090422145424861e+03 -999 2.74124524e-01 2.959490641e-01 -1.14442907e-01
 85 6 1281933 2.3113092441856574e+04 4.2149651404837503e+04 1.5765489774140369e-14 1.8597915802298943e+04 2.3701831349934051e+04 1.4895178534467473e+03 -999 2.74206737e-01 2.917823955e-01 -1.14451416e-01
 86 6 1281933 2.0293967172697994e+04 3.9631301142797725e+04 1.5546275564040358e-14 1.6917043563040548e+04 2.1185448785266082e+04 1.9314246518257587e+03 -999 2.74266662e-01 2.871528885e-01 -1.14395076e-01
 87 6 1281933 1.7626049490494705e+04 3.6836080453280112e+04 1.5234159890270357e-14 1.5263808067444419e+04 1.8884709816179042e+04 2.6206805628345446e+03 -999 2.74388628e-01 2.810139138e-01 -1.14318381e-01
 88 6 1281933 1.6269487074338744e+04 3.4240966507201258e+04 1.4869205366211739e-14 1.4013803760732229e+04 1.8003432469944626e+04 3.7039186187635628e+03 -999 2.74641041e-01 2.731716745e-01 -1.14229616e-01
 89 6 1281933 1.6189746406394761e+04 3.2602339074487278e+04 1.4553251488638683e-14 1.3444693690264707e+04 1.8346389094456350e+04 7.5216446631435647e+03 -999 2.75009979e-01 2.650504132e-01 -1.14181086e-01
 90 6 1281933 1.6561100749914123e+04 3.1842897449517946e+04 1.4428576726679139e-14 1.3374124791211689e+04 1.9029351831648502e+04 2.0869015955095765e+04 -999 2.75465745e-01 2.569183555e-01 -1.14217328e-01
 91 6 1281933 1.5876881280336509e+04 2.9215098261825962e+04 1.4028180876690021e-14 1.2695919973522357e+04 1.8451315755349318e+04 9.0902018098242304e+04 -999 2.76288809e-01 2.450180301e-01 -1.14514069e-01
 92 6 1281933 1.6345677470094864e+04 2.7689016773743460e+04 1.3912697329470522e-14 1.2398841943510339e+04 1.8903344186715469e+04 2.3385785175768571e+05 -999 2.77469245e-01 2.275899335e-01 -1.15309578e-01
 93 6 1281933 1.7422637946240444e+04 3.6899561372750126e+04 1.4019578238354815e-14 1.2578622457051355e+04 2.1703246965582446e+04 3.5880779439133930e+05 -999 2.78554194e-01 2.061197442e-01 -1.16978069e-01
 94 6 1281933 1.7247343774017725e+04 3.7987128196922866e+04 1.3612828316927537e-14 1.2484402155929256e+04 2.3749967232130948e+04 1.8997555047147869e+05 -999 2.78560509e-01 2.014237750e-01 -1.17480465e-01
 95 6 1281933 1.7206389862980250e+04 4.1821001247277884e+04 1.3412790147752976e-14 1.3070810623044754e+04 2.7589489840270347e+04 6.4659506525820517e+05 -999 2.78503687e-01 1.980078305e-01 -1.17855518e-01
 96 6 1281933 1.6434847857575569e+04 2.1407864205283378e+04 9.8976112168075264e-14 1.1472572020248192e+04 1.8040628362943960e+04 5.8994748878861999e+05 -999 2.78501809e-01 1.748606610e-01 -1.20418873e-01
 97 6 1281933 1.5750192431614738e+04 2.1282307554575626e+04 2.4568125225103773e-13 1.0686586387852545e+04 1.6821194111003741e+04 4.8682302571442263e+05 -999 2.76627136e-01 1.544506071e-01 -1.22923959e-01
 98 6 1281933 1.5271435422719451e+04 6.1535446290283362e+04 3.8355734733493904e-13 1.0875769909945191e+04 2.0861056660875751e+04 1.4898703109177116e+06 -999 2.72260454e-01 1.368167628e-01 -1.24642097e-01
 99 6 1281933 1.5086797657942137e+04 5.9852194850274020e+04 3.9242302046086046e-13 1.0402212672255200e+04 2.0837998861125147e+04 3.9727670371639362e+05 -999 2.71682573e-01 1.355832622e-01 -1.24676616e-01
 100 6 1281933 1.4961926032651016e+04 7.2289929670609665e+04 3.9853443242445874e-13 1.0560426308498363e+04 2.3759600391632095e+04 3.6137148610757763e+05 -999 2.71267850e-01 1.347297886e-01 -1.24693862e-01
 101 6 1281933 1.4002057753779880e+04 2.4867865766613173e+04 4.6171894120173378e-13 8.7843440425318422e+03 1.4552545542989870e+04 1.3382540982171419e+05 -999 2.65372555e-01 1.219498887e-01 -1.25023236e-01
 102 6 1281933 1.2930079737219623e+04 2.3072298091968820e+04 5.1786491638431938e-13 8.1694224690670890e+03 1.3429975265121460e+04 7.8714764910894621e+04 -999 2.60332060e-01 1.147210456e-01 -1.24615270e-01
 103 6 1281933 1.2402111292798616e+04 2.1787864871108879e+04 5.2408096664745711e-13 7.8552802758580729e+03 1.2830894955145341e+04 6.1746526530233241e+04 -999 2.57509910e-01 1.110299183e-01 -1.24161726e-01
 104 6 1281933 1.2085235228063779e+04 2.0533948482072559e+04 5.2660494657475346e-13 7.5477856902968824e+03 1.2400613602278056e+04 5.2365218603249377e+04 -999 2.55381042e-01 1.081813622e-01 -1.23716413e-01
 105 6 1281933 1.2064414479867959e+04 1.9469192212198297e+04 5.2749893276965893e-13 7.3078998797863351e+03 1.2242264389361631e+04 4.5152672552716067e+04 -999 2.53683442e-01 1.057825513e-01 -1.23292484e-01
 106 6 1281933 1.0489658507900172e+04 1.6652715150157819e+04 7.7083306350505909e-13 6.2722845059677020e+03 1.0515836025092853e+04 3.3902504424430590e+04 -999 2.55753146e-01 1.012661444e-01 -1.23430530e-01
 107 6 1281933 9.1809239197548559e+03 1.3429898310108420e+04 1.3859149872280865e-12 5.5947188275425442e+03 8.9071756919908148e+03 4.1674884555743964e+04 -999 2.63107541e-01 9.501118987e-02 -1.24979925e-01
 108 6 1281933 9.0306293826687106e+03 1.3003593294110702e+04 1.6437414478644865e-12 5.6563624561289371e+03 8.6402943425294470e+03 1.1692411118047842e+05 -999 2.78313872e-01 8.958012714e-02 -1.29186996e-01
 109 6 1281933 9.0381107857919633e+03 1.3118006082146441e+04 1.5824232909571807e-12 5.4592960349169753e+03 8.7697252033984314e+03 1.0865759117010154e+05 -999 2.88795713e-01 8.765854720e-02 -1.32484349e-01
 110 6 1281933 8.6576529793782611e+03 1.3075183365505420e+04 1.4797059782658200e-12 5.2407154503417169e+03 8.6029431232232055e+03 1.8199573681491622e+05 -999 3.00327040e-01 8.592417385e-02 -1.36237464e-01
 111 6 1281933 6.6390283643107068e+03 9.5316270502070456e+03 1.4989867741470276e-12 4.0640869261241255e+03 6.2826444844951093e+03 2.0863051187561834e+05 -999 3.23812624e-01 8.330523692e-02 -1.43986342e-01
 112 6 1281933 5.2930268117475225e+03 6.9598984725065111e+03 1.9118015488456829e-12 3.1065727001531659e+03 5.0258506425117375e+03 1.7590363586385504e+05 -999 3.61404100e-01 7.973846486e-02 -1.56360760e-01
 113 6 1281933 4.6099558367063537e+03 6.3746401252276983e+03 2.0721015365539414e-12 2.3996080608752354e+03 4.6127818778146548e+03 1.3480365675473333e+05 -999 4.11116931e-01 7.565922640e-02 -1.72095745e-01
 114 6 1281933 4.0123720054436349e+03 5.3999327119135633e+03 1.9809428397166226e-12 2.0572988392238690e+03 4.1207817108381796e+03 1.8307487039796697e+05 -999 4.41222897e-01 7.324588911e-02 -1.80506158e-01
 115 6 1281933 4.0664059613800309e+03 5.7252437047539752e+03 1.8046494567847582e-12 1.7586413088130630e+03 5.0363974737121689e+03 1.0521774907693124e+05 -999 4.95700723e-01 6.884598987e-02 -1.93957397e-01
 116 6 1281933 3.0604751000295823e+03 3.8531400748724072e+03 2.9306525387404103e-12 1.1018064540811372e+03 3.1033983967223976e+03 2.0674188762493705e+05 -999 5.57600952e-01 6.518269004e-02 -2.02051334e-01
 117 6 1281933 2.7500323753284711e+03 3.2337307064497500e+03 3.4749964022512936e-12 8.0539588069428146e+02 2.6416365142871891e+03 7.6467403762631497e+04 -999 6.04104211e-01 6.352272096e-02 -2.05361579e-01
 118 6 1281933 2.6107117626727290e+03 3.0618498689149210e+03 3.7310613360615067e-12 7.2132921982346159e+02 2.4861624781473097e+03 1.1888415252600757e+05 -999 6.30858918e-01 6.293194510e-02 -2.06021630e-01
 119 6 1281933 2.5395702669703724e+03 2.9814117464799610e+03 4.0194982682994467e-12 6.8585636149743141e+02 2.4063729655846928e+03 4.8536278085117970e+04 -999 6.47272420e-01 6.265413133e-02 -2.06023526e-01
 120 6 1281933 2.4985747573954018e+03 2.9716041509104057e+03 4.6267487667188703e-12 6.9523668943545897e+02 2.3598374317225471e+03 2.7651718877249870e+04 -999 6.60731480e-01 6.247834461e-02 -2.05843999e-01
 121 6 1281933 2.3636316277713095e+03 2.9414388907194730e+03 4.7805589584416324e-12 6.7101431770627278e+02 2.2215063946898395e+03 1.7660549671559067e+04 -999 6.86786570e-01 6.287699181e-02 -2.05856626e-01
 122 6 1281933 2.2767646783198061e+03 2.8072340267078530e+03 4.8899241346583113e-12 6.4212930251450450e+02 2.1258555684112071e+03 1.1679136335051317e+04 -999 7.14393875e-01 6.326726266e-02 -2.05368363e-01
 123 6 1281933 2.2364420772518260e+03 2.6521854786599220e+03 5.1899403804713181e-12 6.2838769477782034e+02 2.0744845443239997e+03 8.3342944126713010e+03 -999 7.38293776e-01 6.354910885e-02 -2.04432436e-01
 124 6 1281933 2.2385240540936688e+03 2.5736218307473118e+03 5.5334508998432050e-12 6.2437372572976835e+02 2.0645609380760438e+03 7.0927808923115599e+03 -999 7.55063944e-01 6.369803606e-02 -2.03460038e-01
 125 6 1281933 2.2461671954483249e+03 2.5583506045644604e+03 5.8451292508599566e-12 6.2975644958310170e+02 2.0659483462798680e+03 6.7458081138577500e+03 -999 7.65728783e-01 6.376455953e-02 -2.02702954e-01
 126 6 1281933 2.1767080249752416e+03 2.7540336238655318e+03 5.6428116029726339e-12 8.3676412440169941e+02 2.0124361246093463e+03 7.3273232578193438e+03 -999 7.82550925e-01 6.414194887e-02 -2.02194448e-01
 127 6 1281933 2.1576104941549679e+03 3.0511236142949156e+03 5.7411894002484524e-12 1.1385205781346410e+03 2.0097550561929938e+03 8.1778507127814783e+03 -999 7.98223139e-01 6.441119926e-02 -2.01397042e-01
 128 6 1281933 2.1548197783164992e+03 3.1355955555816181e+03 5.7235198769503038e-12 1.2830476568705787e+03 2.0100935955516484e+03 8.0985679621658837e+03 -999 8.12632272e-01 6.458813842e-02 -2.00548297e-01
 129 6 1281933 2.1923448278004944e+03 3.2253562167360487e+03 5.9305784754728713e-12 1.3905170485339861e+03 2.0379665249938316e+03 8.2223075908531864e+03 -999 8.27289210e-01 6.467340561e-02 -1.99520439e-01
 130 6 1281933 2.2555551490736752e+03 3.2962073135695473e+03 6.1394226634042926e-12 1.4613514914300629e+03 2.0870980474224111e+03 8.1973566712077500e+03 -999 8.37726116e-01 6.465110983e-02 -1.98663374e-01
 131 6 1281933 2.1743712502746644e+03 3.1349606598604751e+03 5.6028089913925523e-12 1.4089309868210669e+03 2.0141395022735092e+03 8.4624950031602621e+03 -999 8.44375058e-01 6.469671854e-02 -1.98345831e-01
 132 6 1281933 2.1097145926255694e+03 2.9399272045570638e+03 5.1381822026561871e-12 1.3348583961278848e+03 1.9535717941134267e+03 8.6703315036006734e+03 -999 8.52121550e-01 6.472284577e-02 -1.97887728e-01
 133 6 1281933 2.0519140937406451e+03 2.7251881254707391e+03 4.7645279397620717e-12 1.2214639186052743e+03 1.8939928938311118e+03 8.9583640378229011e+03 -999 8.60891408e-01 6.471863701e-02 -1.97299436e-01
 134 6 1281933 2.0366641995836376e+03 2.5694838828839329e+03 4.5197380909809040e-12 1.1168431101748931e+03 1.8670504885049675e+03 9.2761154897897723e+03 -999 8.68908072e-01 6.467366501e-02 -1.96678759e-01
 135 6 1281933 2.0345532855941542e+03 2.4988286128415562e+03 4.3399776902698968e-12 1.0538040982555046e+03 1.8567929865580970e+03 9.4997830733081519e+03 -999 8.75001617e-01 6.460360359e-02 -1.96139144e-01
 136 6 1281933 2.0094957616976487e+03 2.4980964874153547e+03 4.0455070938355578e-12 1.1014657814112500e+03 1.8340401531040286e+03 9.7377001965825639e+03 -999 8.79698829e-01 6.454776702e-02 -1.95802154e-01
 137 6 1281933 1.9943942612068470e+03 2.4841797424714309e+03 3.8305926019372821e-12 1.1208064012402599e+03 1.8167218115958453e+03 1.0055927031642774e+04 -999 8.85034027e-01 6.447587708e-02 -1.95328655e-01
 138 6 1281933 1.9798627783951379e+03 2.4585049603170260e+03 3.6959489103014545e-12 1.1157608068425577e+03 1.7989812825964634e+03 1.0519083282000776e+04 -999 8.91081932e-01 6.438253649e-02 -1.94779901e-01
 139 6 1281933 1.9856131205723709e+03 2.4222756730683268e+03 3.5770377693959239e-12 1.0896072800980828e+03 1.7942890490232737e+03 1.1279269598092673e+04 -999 8.98302376e-01 6.424780240e-02 -1.94110750e-01
 140 6 1281933 2.0114579599853091e+03 2.3717711318630750e+03 3.4992092328880755e-12 1.0634760814534930e+03 1.8090905406568656e+03 1.0749138168107505e+04 -999 9.02766620e-01 6.413736423e-02 -1.93675276e-01