TITLE = "005.01 ALPHA 3.90 GRIDLEVEL 2"

VARIABLES = "ITERATION"  "GRID_LEVEL"  "GRID_SIZE"  "CONTINUITY"  "MOMENTUMX"  "MOMENTUMY"  "MOMENTUMZ"  "ENERGY"  "TURB1"  "TURB2"  "CL_TOT"  "CD_TOT"  "CM_TOT"

DATASETAUXDATA ParticipantID   = "005"
DATASETAUXDATA SubmissionDate  = "10-31-2024"
DATASETAUXDATA Name            = "Jeffrey A. Housman"
DATASETAUXDATA Email           = "jeffrey.a.housman@nasa.gov"
DATASETAUXDATA Institution     = "NASA Ames Research Center"
DATASETAUXDATA SolverName      = "LAVA Curvilinear"
DATASETAUXDATA BasicAlgorithm  = "RANS"
DATASETAUXDATA TurbulenceModel = "SA-neg"
DATASETAUXDATA GridId          = "Multiblock"
DATASETAUXDATA Discretization  = "Finite difference"
DATASETAUXDATA Order           = "2"
DATASETAUXDATA DistanceCalc    = "Exact"
DATASETAUXDATA Notes           = " "

ZONE T = "005.01 - Alpha 3.90 - Grid Level 2"
AUXDATA Tstatic         = "271.0"
AUXDATA Deltat          = "-999"
AUXDATA GridFileName    = "ONERA-OAT15A_230mmChord_780mmSpan_upZ_2024_06_25-Structured_23mm_Level-2.x"
AUXDATA Misc            = " "
 0 2 119662 1.8007438518082007e+05 3.6702932748421421e+05 3.0557499119366621e-14 1.6145870498034981e+05 1.8478482182150157e+05 4.8786024001321453e+05 -999 9.78120254e-03 4.531008865e-01 -6.53726587e-03
 1 2 119662 2.4459485807662667e+05 2.9521629159879801e+05 2.7497194440441563e-14 1.3316493805314996e+05 2.3830783674936491e+05 3.1485649045067444e+05 -999 5.67476884e-02 4.482230196e-01 -2.49307394e-02
 2 2 119662 2.9140580658901419e+05 2.6392616128525609e+05 2.5174690899618743e-14 1.4788693006025261e+05 2.7957831600518909e+05 2.0299018500041030e+05 -999 1.08520899e-01 4.550860064e-01 -4.43980212e-02
 3 2 119662 3.4071307718480763e+05 2.4264349938079566e+05 2.3374633303423667e-14 1.6991111393703712e+05 3.2567910487504111e+05 1.3006295257873368e+05 -999 1.53168485e-01 4.658749611e-01 -6.21992617e-02
 4 2 119662 3.9047350081956584e+05 2.2340003245588284e+05 2.1971095973509680e-14 1.9529458863920302e+05 3.7591276770854316e+05 8.2169751700059031e+04 -999 1.91220821e-01 4.791386371e-01 -7.61431778e-02
 5 2 119662 4.3754582931489189e+05 2.2293063045167743e+05 2.0861975067980988e-14 2.2399772220206162e+05 4.2728753809107037e+05 4.2423079800274470e+04 -999 2.21748018e-01 4.927464335e-01 -8.65132402e-02
 6 2 119662 3.9950583239068056e+05 2.5927491004400302e+05 1.9982571167979317e-14 2.3549962734478913e+05 3.9212743806567084e+05 3.4290632403649171e+04 -999 2.43532635e-01 4.992152704e-01 -9.44372370e-02
 7 2 119662 3.9573481854708644e+05 2.7734854725769674e+05 1.9184270346474356e-14 2.3922506123609521e+05 3.8517597624888970e+05 2.8364552467214129e+04 -999 2.60543212e-01 5.009686658e-01 -1.01089609e-01
 8 2 119662 4.2966022987155389e+05 2.7470709427336243e+05 1.8610960399595030e-14 2.3555225240370282e+05 4.3207874296538555e+05 2.4347177614804557e+04 -999 2.73068305e-01 4.968166413e-01 -1.06085655e-01
 9 2 119662 4.4925881323089550e+05 2.5497324808174348e+05 1.8199476236045024e-14 2.3596352592683685e+05 4.5533542073899537e+05 2.1549277800009681e+04 -999 2.84810672e-01 4.892098832e-01 -1.10394810e-01
 10 2 119662 4.6404048545633449e+05 2.5145528470629052e+05 1.7998412772733573e-14 2.2951014937627967e+05 4.8048736606577248e+05 1.9258010069769953e+04 -999 2.93158506e-01 4.833652465e-01 -1.13251093e-01
 11 2 119662 3.8452556919405458e+05 2.1712813628391770e+05 1.7788449227250620e-14 2.1150000580929156e+05 3.9229479027667874e+05 1.7236505588679844e+04 -999 3.03113780e-01 4.761569513e-01 -1.16704687e-01
 12 2 119662 3.6314612774102489e+05 2.1890538777957248e+05 1.7637312469981784e-14 2.0338018127802125e+05 3.6541404460622754e+05 1.5655927176522064e+04 -999 3.11121702e-01 4.704037624e-01 -1.19420336e-01
 13 2 119662 3.4459847687057266e+05 1.9326955871342449e+05 1.7599423292755100e-14 1.9342984710510680e+05 3.4359836745811882e+05 1.4330248856333121e+04 -999 3.17498624e-01 4.654051459e-01 -1.21614767e-01
 14 2 119662 3.7624795155680529e+05 2.0156958832236697e+05 1.7603638865739799e-14 1.9092985571149338e+05 3.8725633777878061e+05 1.3182220540799635e+04 -999 3.21953706e-01 4.612808360e-01 -1.23209820e-01
 15 2 119662 3.4170668018099153e+05 1.7047152726718094e+05 1.7567284318308295e-14 1.8027116082146260e+05 3.4794004202343413e+05 1.2227553379846482e+04 -999 3.25107739e-01 4.577979311e-01 -1.24412865e-01
 16 2 119662 3.1848373911923030e+05 1.7746889398881097e+05 1.7458791043930763e-14 1.7271866396110982e+05 3.2481383648366795e+05 1.1185206978697506e+04 -999 3.27841291e-01 4.541332545e-01 -1.25525664e-01
 17 2 119662 2.8346142650276050e+05 1.6971390093849952e+05 1.7334254090638627e-14 1.5880926105053094e+05 2.8885676714780624e+05 1.0285960234414199e+04 -999 3.30567097e-01 4.500620377e-01 -1.26659583e-01
 18 2 119662 2.9359900239738391e+05 1.6491944068549899e+05 1.7227722153804601e-14 1.5503625494771072e+05 2.9861209397257736e+05 9.5130748156114551e+03 -999 3.33672442e-01 4.449297483e-01 -1.27940826e-01
 19 2 119662 2.6643865671085933e+05 1.4662900397473486e+05 1.7115436641447625e-14 1.4396521010484482e+05 2.7122681473863468e+05 8.8610056037663417e+03 -999 3.35475535e-01 4.415069838e-01 -1.28644841e-01
 20 2 119662 3.1006906737796095e+05 1.7141973418394700e+05 1.6998275530077999e-14 1.4916162381483306e+05 3.2506206234524812e+05 8.2874201842554539e+03 -999 3.37444832e-01 4.373332802e-01 -1.29372022e-01
 21 2 119662 2.5794064032357011e+05 1.5848607041069318e+05 1.6862482141038508e-14 1.3368469106287838e+05 2.7298653818819742e+05 7.6514405018272319e+03 -999 3.38746359e-01 4.337323303e-01 -1.29813254e-01
 22 2 119662 2.1710471176870781e+05 1.3007406687035484e+05 1.6697433579791768e-14 1.2035489696182324e+05 2.2213845091869117e+05 7.0791935855772745e+03 -999 3.40143279e-01 4.293330845e-01 -1.30269681e-01
 23 2 119662 1.9979479499637219e+05 1.2480988395165835e+05 1.6545597090035636e-14 1.1214805479982961e+05 2.0158411208364359e+05 6.5785348469030087e+03 -999 3.41262781e-01 4.252996453e-01 -1.30625326e-01
 24 2 119662 2.2665185437618804e+05 1.2730692152021357e+05 1.6425479438499888e-14 1.1124828015051578e+05 2.3576401917850220e+05 6.1422622693935027e+03 -999 3.42278298e-01 4.212864013e-01 -1.30943611e-01
 25 2 119662 2.0382373845573241e+05 1.0636909713593520e+05 1.6347145627233836e-14 1.0369689825815383e+05 2.1032480475327122e+05 5.7654949783913517e+03 -999 3.42939613e-01 4.184479671e-01 -1.31149858e-01
 26 2 119662 1.8254232860346747e+05 1.0723174428353742e+05 1.6199271524327730e-14 9.6851215708962045e+04 1.8941035843698352e+05 5.3185319848116524e+03 -999 3.43547518e-01 4.153111477e-01 -1.31332229e-01
 27 2 119662 1.5652539572480341e+05 1.0100251627428480e+05 1.6009461892389636e-14 8.7313894923111598e+04 1.6176266685403860e+05 4.9258763615084954e+03 -999 3.44224998e-01 4.116109549e-01 -1.31536334e-01
 28 2 119662 1.4687989992299973e+05 9.4475640603175445e+04 1.5809499879111976e-14 8.0345812144934593e+04 1.4952237005992496e+05 4.5823586447270864e+03 -999 3.44884048e-01 4.077800060e-01 -1.31737467e-01
 29 2 119662 1.5651216900146034e+05 9.1083021188936269e+04 1.5617282962977717e-14 7.7689713127192314e+04 1.6036541419302934e+05 4.2775429126368799e+03 -999 3.45467003e-01 4.041781869e-01 -1.31918094e-01
 30 2 119662 1.4911074687207764e+05 8.5121531683425506e+04 1.5484749977732483e-14 7.3563283598317823e+04 1.5561497189916371e+05 4.0143868452555334e+03 -999 3.45839098e-01 4.017383132e-01 -1.32033940e-01
 31 2 119662 1.2773590771405408e+05 7.9292171632106125e+04 1.5292531174938705e-14 6.7259714992917245e+04 1.3403732399358394e+05 3.7099870441033636e+03 -999 3.46202094e-01 3.988701846e-01 -1.32140304e-01
 32 2 119662 1.0663633928272652e+05 7.4910506412917763e+04 1.5050240171044552e-14 6.0400239032459751e+04 1.1054833329549852e+05 3.4329136600860097e+03 -999 3.46620334e-01 3.954581740e-01 -1.32262022e-01
 33 2 119662 9.8230612935393627e+04 7.0573813346049239e+04 1.4806640845063901e-14 5.5153519226437384e+04 9.9772171522337507e+04 3.1883319855482187e+03 -999 3.47021831e-01 3.920509418e-01 -1.32378309e-01
 34 2 119662 1.0663019844138219e+05 7.0265617322084450e+04 1.4583896909641403e-14 5.3085941212856284e+04 1.1017647861734271e+05 2.9760384290374095e+03 -999 3.47370007e-01 3.889695581e-01 -1.32478740e-01
 35 2 119662 1.0346400825384489e+05 6.4691858890769741e+04 1.4417192723544100e-14 5.0903659746889018e+04 1.0657408301620519e+05 2.7954545098690937e+03 -999 3.47626328e-01 3.866079566e-01 -1.32552133e-01
 36 2 119662 8.8650261021841085e+04 6.3314570917001169e+04 1.4217506297304566e-14 4.6483025386765177e+04 9.3295212931836766e+04 2.5834892053841249e+03 -999 3.47847696e-01 3.841226673e-01 -1.32609060e-01
 37 2 119662 7.1769229958682059e+04 5.7928689883206534e+04 1.3979875133666783e-14 4.1276093698511264e+04 7.5399909487197860e+04 2.3931532161043901e+03 -999 3.48103547e-01 3.812465385e-01 -1.32674883e-01
 38 2 119662 6.2644408374569175e+04 5.2899509943485784e+04 1.3705324185236891e-14 3.6857281971547447e+04 6.3601767074757867e+04 2.2195663911806046e+03 -999 3.48384595e-01 3.780899898e-01 -1.32747480e-01
 39 2 119662 6.5564999958507382e+04 5.1398442020784867e+04 1.3434779485745432e-14 3.4645749784973843e+04 6.7236643836848394e+04 2.0644672880958024e+03 -999 3.48652966e-01 3.750736602e-01 -1.32817443e-01
 40 2 119662 6.5110415356340476e+04 4.9650437343920945e+04 1.3241746270646257e-14 3.3215886457345143e+04 6.7572022896684270e+04 1.9325001279941491e+03 -999 3.48848086e-01 3.728623916e-01 -1.32868991e-01
 41 2 119662 5.5483381956907360e+04 4.7153092808355883e+04 1.3034057214256797e-14 3.0515243412842341e+04 5.8654586776677672e+04 1.7674276466502586e+03 -999 3.49018821e-01 3.705396058e-01 -1.32909753e-01
 42 2 119662 4.4284210237308303e+04 4.4407031510472894e+04 1.2771372542555977e-14 2.7437676329649072e+04 4.6702618202140016e+04 1.6216573491656297e+03 -999 3.49225617e-01 3.677663965e-01 -1.32959986e-01
 43 2 119662 3.7728110267898490e+04 4.1480779179675970e+04 1.2478843314880805e-14 2.4663455590426871e+04 3.8406626685832947e+04 1.4946509048410692e+03 -999 3.49460237e-01 3.646581913e-01 -1.33018037e-01
 44 2 119662 3.7724592916685353e+04 3.9993820814058548e+04 1.2204253189253946e-14 2.3097518783322776e+04 3.8502001288870248e+04 1.3864432190206808e+03 -999 3.49671582e-01 3.618729953e-01 -1.33071581e-01
 45 2 119662 3.8727206564862492e+04 3.9680580342917398e+04 1.1977855183851144e-14 2.2200318051033482e+04 4.0363662021657707e+04 1.2861007727193619e+03 -999 3.49847034e-01 3.595485538e-01 -1.33117473e-01
 46 2 119662 3.3203563133285585e+04 3.7403014420455525e+04 1.1764153525972359e-14 2.0770641674934384e+04 3.4985336702401786e+04 1.1629986503059858e+03 -999 3.49991776e-01 3.572554135e-01 -1.33151745e-01
 47 2 119662 2.7067841437576466e+04 3.5346181327332517e+04 1.1493780534699197e-14 1.9170959538607382e+04 2.8300006516471098e+04 1.0555268793005271e+03 -999 3.50169946e-01 3.544723474e-01 -1.33194845e-01
 48 2 119662 2.2987602818605137e+04 3.3498039544231884e+04 1.1195310812703208e-14 1.7648620689910906e+04 2.3229696261386584e+04 9.6371962953294690e+02 -999 3.50375519e-01 3.512906382e-01 -1.33245984e-01
 49 2 119662 2.1907797039913330e+04 3.2172926675514707e+04 1.0908450241357518e-14 1.6578002462200391e+04 2.1895413462711469e+04 8.8701794199708695e+02 -999 3.50568319e-01 3.482997450e-01 -1.33295988e-01
 50 2 119662 2.1583927299059429e+04 3.1263959801744335e+04 1.0649197840504932e-14 1.5814782448135436e+04 2.1724016304382727e+04 8.2121768544072108e+02 -999 3.50736192e-01 3.456506986e-01 -1.33342059e-01
 51 2 119662 1.9315960121291002e+04 2.9994745373099271e+04 1.0406773102064962e-14 1.4969241111597985e+04 1.9480705712508206e+04 7.3417260209546873e+02 -999 3.50865950e-01 3.430194984e-01 -1.33371132e-01
 52 2 119662 1.6871308231248746e+04 2.8614265335390195e+04 1.0116218776552849e-14 1.3984215937731829e+04 1.6840647417718741e+04 6.6294045396546892e+02 -999 3.51021008e-01 3.398030266e-01 -1.33404645e-01
 53 2 119662 1.5078710738068516e+04 2.7211692569926250e+04 9.7801471949547098e-15 1.2944970911702596e+04 1.4798235451340990e+04 6.0452158862734643e+02 -999 3.51193168e-01 3.360656606e-01 -1.33439881e-01
 54 2 119662 1.4160736326173872e+04 2.6024303999727137e+04 9.4419773257112135e-15 1.2044258640378841e+04 1.3876221166419626e+04 5.5617740515645437e+02 -999 3.51349999e-01 3.323754014e-01 -1.33469765e-01
 55 2 119662 1.3611200343835009e+04 2.5072375844150414e+04 9.1545785027757538e-15 1.1312259348642139e+04 1.3481257235729403e+04 5.1598712740324697e+02 -999 3.51477337e-01 3.290190176e-01 -1.33492353e-01
 56 2 119662 1.2554102957789881e+04 2.4000846403149742e+04 8.8583701705949758e-15 1.0563024872326452e+04 1.2549590019463882e+04 4.7190105377935134e+02 -999 3.51546050e-01 3.254206422e-01 -1.33473831e-01
 57 2 119662 1.1486790138931026e+04 2.2788088002432421e+04 8.5305304832528239e-15 9.7080542062417335e+03 1.1632977200244410e+04 4.3932248575362951e+02 -999 3.51612532e-01 3.208902877e-01 -1.33433561e-01
 58 2 119662 1.0700894986476142e+04 2.1547877391897473e+04 8.1617389732744916e-15 8.8670509148309993e+03 1.1068059632501405e+04 4.1700305758934775e+02 -999 3.51660943e-01 3.156070504e-01 -1.33362314e-01
 59 2 119662 1.0280936580566722e+04 2.0503366730000078e+04 7.8136863262522789e-15 8.2119034828070889e+03 1.0908627293070444e+04 4.0095591786329118e+02 -999 3.51677490e-01 3.104430750e-01 -1.33267892e-01
 60 2 119662 1.0093992760151201e+04 1.9653798551472431e+04 7.5299226205936354e-15 7.7579992461347438e+03 1.0967049930167235e+04 3.8751275122701071e+02 -999 3.51669303e-01 3.055778305e-01 -1.33160771e-01
 61 2 119662 9.7020609529884059e+03 1.8688498087375676e+04 7.2278789835470764e-15 7.3119749061012044e+03 1.0839297815787979e+04 3.7424926813885583e+02 -999 3.51588307e-01 2.996779647e-01 -1.32958853e-01
 62 2 119662 9.5103689800379398e+03 1.7626029765484705e+04 6.9265924343731395e-15 7.0060640598414411e+03 1.0885865371309432e+04 3.7375781666340237e+02 -999 3.51492946e-01 2.919027814e-01 -1.32665881e-01
 63 2 119662 9.6089433307287745e+03 1.6658099323761573e+04 6.6530040079146887e-15 6.9718048951448563e+03 1.1135912282213127e+04 3.8122526972932712e+02 -999 3.51424433e-01 2.830153544e-01 -1.32313522e-01
 64 2 119662 9.8329286409263714e+03 1.5891417330352151e+04 6.4352810894718029e-15 7.1549588742533233e+03 1.1424835915160289e+04 3.8934046325712183e+02 -999 3.51381975e-01 2.742521405e-01 -1.32001528e-01
 65 2 119662 1.0069746627359968e+04 1.5307956083885132e+04 6.2863724919734917e-15 7.3609739139060002e+03 1.1676986274009312e+04 3.9649340683211818e+02 -999 3.51405899e-01 2.661376472e-01 -1.31775543e-01
 66 2 119662 1.0104742876735418e+04 1.4467264385972587e+04 6.1584276170222652e-15 7.1989923575833154e+03 1.1682843990679301e+04 4.1078784064929164e+02 -999 3.51730587e-01 2.551147426e-01 -1.31594113e-01
 67 2 119662 1.0106850615619502e+04 1.3634930307205466e+04 6.0858380833513429e-15 7.0518061984991273e+03 1.1560918137493074e+04 4.5740984321799061e+02 -999 3.52623323e-01 2.402437554e-01 -1.31597548e-01
 68 2 119662 9.9785434948654020e+03 1.3161077206392336e+04 5.9855507621581746e-15 6.9038648879113452e+03 1.1252735021424867e+04 5.4055977703083977e+02 -999 3.54132926e-01 2.250025927e-01 -1.32044273e-01
 69 2 119662 9.7326554881015418e+03 1.3007520024519827e+04 5.8609963195240205e-15 6.7965196399201304e+03 1.0818621766995295e+04 7.3267901140796937e+02 -999 3.55966304e-01 2.108964745e-01 -1.33001281e-01
 70 2 119662 9.4095143147077415e+03 1.3090737574969520e+04 5.6376872841436173e-15 6.8033132418554824e+03 1.0278235863027012e+04 1.1839672856933037e+03 -999 3.57819589e-01 1.975709951e-01 -1.34463981e-01
 71 2 119662 8.5277351517972565e+03 1.1880151728539491e+04 5.2739279368785891e-15 6.8018819896543400e+03 9.0394708771602436e+03 2.1742633664800678e+03 -999 3.59935659e-01 1.768606244e-01 -1.37674373e-01
 72 2 119662 7.6550646973959410e+03 1.1336431572637690e+04 4.8421511451768695e-15 6.8684233884300520e+03 7.9050242782816922e+03 3.7222007484552764e+03 -999 3.59256203e-01 1.590866420e-01 -1.41029479e-01
 73 2 119662 7.0883069777262226e+03 1.1233089293207633e+04 4.3932005281966951e-15 6.9469277334781154e+03 7.1112337238052678e+03 6.4849884314784549e+03 -999 3.54531746e-01 1.447030622e-01 -1.43228218e-01
 74 2 119662 6.8200978033487154e+03 1.1232361004652832e+04 4.0490600688686192e-15 6.5388591333041732e+03 6.7056097867522803e+03 9.1025328356575537e+03 -999 3.50074710e-01 1.385837260e-01 -1.43334326e-01
 75 2 119662 6.6767125300931448e+03 1.1316102954814749e+04 3.8435808222288822e-15 6.1101003252077189e+03 6.4909082546918944e+03 9.8824735581287769e+03 -999 3.46945413e-01 1.351675915e-01 -1.43041041e-01
 76 2 119662 5.7096574253684021e+03 1.0527609254710438e+04 3.6621993476142341e-15 5.3026125497791490e+03 5.6662474132083653e+03 1.0021504657309679e+04 -999 3.38829772e-01 1.279935242e-01 -1.41518694e-01
 77 2 119662 4.9545108774537730e+03 1.0997757916898661e+04 3.5790380585720405e-15 4.5123600801314024e+03 4.9271249202573554e+03 9.1573302351573366e+03 -999 3.26527422e-01 1.185647881e-01 -1.37930200e-01
 78 2 119662 4.5702401085521087e+03 1.0731060241487676e+04 3.3909714766846757e-15 3.9483911845903876e+03 4.5580407109377356e+03 6.7652709457888659e+03 -999 3.20752695e-01 1.139045926e-01 -1.35119472e-01
 79 2 119662 4.3356379732367132e+03 1.0099802262091724e+04 3.2605079467711219e-15 3.6420155737305058e+03 4.3240015784263524e+03 5.1709845124736948e+03 -999 3.17751526e-01 1.106139541e-01 -1.32988597e-01
 80 2 119662 4.2215498604046343e+03 9.5558727402032200e+03 3.1597611984824683e-15 3.5545334481333375e+03 4.1991011982189257e+03 4.4931417675313360e+03 -999 3.16669348e-01 1.085280210e-01 -1.31683786e-01
 81 2 119662 3.8267521535338856e+03 8.4129829710228678e+03 3.2223846483672067e-15 3.4692583004352341e+03 3.7931902354381173e+03 4.6522667649612713e+03 -999 3.17123955e-01 1.050698796e-01 -1.29865916e-01
 82 2 119662 3.5912594487745041e+03 7.0740871774526959e+03 3.4775995961687172e-15 3.6333545030343316e+03 3.4981385256425765e+03 5.0325584311615121e+03 -999 3.21746305e-01 9.997010226e-02 -1.27991224e-01
 83 2 119662 3.6614621530888007e+03 6.3906858219819887e+03 3.6152088196539812e-15 3.6584239603790156e+03 3.5037923971178056e+03 5.9445512347745707e+03 -999 3.31599663e-01 9.598264947e-02 -1.28189515e-01
 84 2 119662 3.8204962798716638e+03 6.2696385771133491e+03 3.5200327745753743e-15 3.5883203495636453e+03 3.6389451497612145e+03 7.6145592433665061e+03 -999 3.40205694e-01 9.370515052e-02 -1.29396388e-01
 85 2 119662 3.9540471486701763e+03 6.3665386663441968e+03 3.4299945009034026e-15 3.5165523919265293e+03 3.7761096196555027e+03 9.3001937593453749e+03 -999 3.47364635e-01 9.208406559e-02 -1.30730188e-01
 86 2 119662 3.6951479631524426e+03 5.7094261286923856e+03 3.7001735191880638e-15 3.3157058513742822e+03 3.6735322691186898e+03 1.6427334130945874e+04 -999 3.71521962e-01 8.784700556e-02 -1.36394135e-01
 87 2 119662 3.7378934132618087e+03 5.8154368208631204e+03 3.7441329564197972e-15 3.0983345557820426e+03 3.7924424930877904e+03 3.5831559757877789e+04 -999 3.95960979e-01 8.454435038e-02 -1.43754735e-01
 88 2 119662 4.0766435937754918e+03 7.2229478700050749e+03 3.7382920282220936e-15 3.0021148166496146e+03 4.8447113601180035e+03 5.6247460654709212e+04 -999 4.18962973e-01 8.191136608e-02 -1.51772270e-01
 89 2 119662 3.7363820387616588e+03 7.7642782254829117e+03 3.4868804473777004e-15 2.8729742765837213e+03 5.9323701755489483e+03 1.3891324537866176e+05 -999 4.30061030e-01 8.082006557e-02 -1.55883040e-01
 90 2 119662 3.4389452869574047e+03 7.9465680308805504e+03 3.3877019011834506e-15 2.7429647646055878e+03 6.2712749099195289e+03 1.3614552261844784e+05 -999 4.37066895e-01 8.017025443e-02 -1.58461788e-01
 91 2 119662 2.7206561896645435e+03 3.4558034235138743e+03 3.4776392251467739e-15 2.5997363175713758e+03 2.5703146221048173e+03 1.0024134120684284e+05 -999 4.54890103e-01 7.852797671e-02 -1.65016414e-01
 92 2 119662 2.4627540801079072e+03 2.7222463499386140e+03 3.6230217381228249e-15 2.3500784705957226e+03 2.3693318823901827e+03 7.3303497624525509e+04 -999 4.72829190e-01 7.711350134e-02 -1.71454465e-01
 93 2 119662 2.3199059548729429e+03 2.6770687751691844e+03 4.7541806250229513e-15 2.3385330867724733e+03 2.3787920790543544e+03 3.2887775077994120e+04 -999 4.91622732e-01 7.592148648e-02 -1.77869048e-01
 94 2 119662 2.2043187704307129e+03 3.7982936805221316e+03 9.8096745765140504e-15 2.3026321072643705e+03 2.8636478851224620e+03 2.5549342265014744e+04 -999 5.01817531e-01 7.540953609e-02 -1.81114197e-01
 95 2 119662 2.1561239088496845e+03 3.9192776233000318e+03 1.0114533823313044e-14 2.0335995644451848e+03 2.3670301186510878e+03 2.4930766108147905e+04 -999 5.06073525e-01 7.521742288e-02 -1.82409432e-01
 96 2 119662 1.8439788729276404e+03 2.0595977589506429e+03 3.5091026859302024e-15 1.4827408094783545e+03 1.7394961490511205e+03 2.3852430812239534e+04 -999 5.46525436e-01 7.400691790e-02 -1.93364743e-01
 97 2 119662 1.7222766473348254e+03 1.9496152946548320e+03 3.8211940575193884e-15 1.1527847393221066e+03 1.6300367212439564e+03 2.1314259895693180e+04 -999 5.89648235e-01 7.328752765e-02 -2.02578525e-01
 98 2 119662 1.7126926922715888e+03 2.0120912304608814e+03 4.0762377852508070e-15 8.8178056938470252e+02 1.6656387805058325e+03 1.8510998277354029e+04 -999 6.34116339e-01 7.311292241e-02 -2.09221003e-01
 99 2 119662 1.7096303457903598e+03 2.8425060288467726e+03 4.4692031616405636e-15 7.1855562921910041e+02 1.7946087684216802e+03 1.4028764029200407e+04 -999 6.65460055e-01 7.346363837e-02 -2.12046586e-01
 100 2 119662 1.6799951334810821e+03 3.1811055407805638e+03 5.1959267585756112e-15 6.2423037800700706e+02 1.8779486482385155e+03 1.1607492923933609e+04 -999 6.83217025e-01 7.390051063e-02 -2.12943175e-01
 101 2 119662 1.4015482977829761e+03 1.3583851813088709e+03 2.7043421620751049e-13 4.3829769891904579e+02 1.3545188667057362e+03 8.5440448836018277e+03 -999 7.47009285e-01 7.695955094e-02 -2.15225899e-01
 102 2 119662 1.2384099970157990e+03 1.1500043360114382e+03 3.2023000211557812e-13 3.1488206451232514e+02 1.1926100962933378e+03 6.6672828981326147e+03 -999 8.05117898e-01 8.056511994e-02 -2.13696898e-01
 103 2 119662 1.1637219276507965e+03 1.0444812378663460e+03 2.9308905295119743e-13 2.5797797577516479e+02 1.1158440426657455e+03 5.5836351581975632e+03 -999 8.55911318e-01 8.421387619e-02 -2.09831142e-01
 104 2 119662 1.1233704569680826e+03 9.7161703436690038e+02 2.5308241889888948e-13 2.2152164359024465e+02 1.0706815054674605e+03 5.0221790774089359e+03 -999 8.98413000e-01 8.711295768e-02 -2.04918089e-01
 105 2 119662 1.0611761370196211e+03 9.3837354094112845e+02 2.2202209485913817e-13 2.1091706451970714e+02 1.0027077261390745e+03 4.7031869648667225e+03 -999 9.33432961e-01 8.849303955e-02 -2.00240154e-01
 106 2 119662 7.6115953617629896e+02 8.0465284085587678e+02 5.1957934537358683e-13 1.9580857282220248e+02 6.8101413053330225e+02 5.0719983258125358e+03 -999 9.87112033e-01 8.499646361e-02 -1.97000904e-01
 107 2 119662 6.9647587923266519e+02 8.5129803529583035e+02 5.4236464222643164e-13 1.8895012270376705e+02 6.1315369343558132e+02 6.1259216668376330e+03 -999 1.01289031e+00 8.279426817e-02 -1.96052229e-01
 108 2 119662 6.6548676855935184e+02 8.7384214778552075e+02 5.4279597981451526e-13 1.9078033750945943e+02 5.7968938549923575e+02 9.1958209238645486e+03 -999 1.03649068e+00 8.085144812e-02 -1.94977489e-01
 109 2 119662 6.6189999939046811e+02 8.1706459230793644e+02 5.3110024088840024e-13 1.9159587809570701e+02 5.7493771655299520e+02 1.1705423481525811e+04 -999 1.05419481e+00 7.944812997e-02 -1.93977585e-01
 110 2 119662 6.6767629210134237e+02 8.2256233419613261e+02 5.2243156906085524e-13 1.9248370719920749e+02 5.8099538138669982e+02 1.2876103785007343e+04 -999 1.06278791e+00 7.876942818e-02 -1.93368940e-01
 111 2 119662 6.4698572255754186e+02 9.0149410389218474e+02 4.6021097369035577e-13 2.0375394531978768e+02 5.6553093703664729e+02 1.3806016951175665e+04 -999 1.07239103e+00 7.801332574e-02 -1.92770801e-01
 112 2 119662 6.5128043798977751e+02 9.6036043552621209e+02 4.2974199650430655e-13 2.8521465760477111e+02 5.7142459788848612e+02 1.6796294407036963e+04 -999 1.08414883e+00 7.730280028e-02 -1.92314064e-01
 113 2 119662 6.8329806615550001e+02 9.9006143641659094e+02 4.2874106643904620e-13 3.8376747424922939e+02 6.0149210190431165e+02 1.4640663024714408e+04 -999 1.09621842e+00 7.672833900e-02 -1.91964674e-01
 114 2 119662 7.2891464700855636e+02 1.0262645626750530e+03 4.3786842509315711e-13 4.3611398787593134e+02 6.4719877868876392e+02 1.0460636921828742e+04 -999 1.10645531e+00 7.626781810e-02 -1.91612668e-01
 115 2 119662 7.8496889835488798e+02 1.1602931677481697e+03 4.4500853605443686e-13 4.5049483396966491e+02 7.0966377683499843e+02 9.3703199230307164e+03 -999 1.11514677e+00 7.579798018e-02 -1.91018113e-01
 116 2 119662 7.6424566869229500e+02 1.1335936317698765e+03 3.9749163870885115e-13 4.1881309821807332e+02 6.8671920377295953e+02 9.4112264744971981e+03 -999 1.11947124e+00 7.580374443e-02 -1.91282821e-01
 117 2 119662 7.6680771122964200e+02 1.0829224921138325e+03 3.5036239495982687e-13 3.8504836941814528e+02 6.8571718297645134e+02 9.2819475110844232e+03 -999 1.12436750e+00 7.578890637e-02 -1.91529024e-01
 118 2 119662 7.9306568495805152e+02 1.0143164873834938e+03 3.0726525467599222e-13 3.5959683714740441e+02 7.0995071295188973e+02 9.2908686748918408e+03 -999 1.12968359e+00 7.573027217e-02 -1.91691346e-01
 119 2 119662 8.4263675943510191e+02 9.1198476524557509e+02 2.7002654891309365e-13 3.3377473732071741e+02 7.6083807746207447e+02 7.1299973468713724e+03 -999 1.13574862e+00 7.559231225e-02 -1.91698814e-01
 120 2 119662 8.7647272446167483e+02 8.7997946873015223e+02 2.5417043046666734e-13 3.2620912833146133e+02 7.9757503443872611e+02 1.0234334180852647e+04 -999 1.13939333e+00 7.543027848e-02 -1.91509312e-01
 121 2 119662 8.5963653352405618e+02 8.7698238763242057e+02 2.2799688868036357e-13 3.3488425467240597e+02 7.7782721954170006e+02 1.1766412454969244e+04 -999 1.14359866e+00 7.541714928e-02 -1.91584553e-01
 122 2 119662 8.6126057010512272e+02 8.5155259023378426e+02 2.0255588119898677e-13 3.3977539549503490e+02 7.7692115450435313e+02 1.1183970655738005e+04 -999 1.14851296e+00 7.537499207e-02 -1.91622177e-01
 123 2 119662 8.8395958915233825e+02 8.2803195240019318e+02 1.8362387185516864e-13 3.3706917285094408e+02 8.0061792479293911e+02 1.0968260498739259e+04 -999 1.15372149e+00 7.531180779e-02 -1.91639062e-01
 124 2 119662 9.1290781862616723e+02 8.0119817312773989e+02 1.7527670842079787e-13 3.2600843076571027e+02 8.3383069330564103e+02 9.1995753864240905e+03 -999 1.15816691e+00 7.518239062e-02 -1.91489816e-01
 125 2 119662 9.3196276503626473e+02 7.8385933733591980e+02 1.7368396627407502e-13 3.1666664229821970e+02 8.5645235661725530e+02 9.7555607211976112e+03 -999 1.16119080e+00 7.503991206e-02 -1.91252126e-01
 126 2 119662 9.0649356223788755e+02 7.8634577541324268e+02 1.6724121582968638e-13 3.1780289071202964e+02 8.2914754022224179e+02 1.1681449637309577e+04 -999 1.16360577e+00 7.510009795e-02 -1.91409826e-01
 127 2 119662 8.8684476855563923e+02 7.8689342352602966e+02 1.7115933603105938e-13 3.1605675797427432e+02 8.0748869041392766e+02 1.1124043834311246e+04 -999 1.16628289e+00 7.515743946e-02 -1.91573270e-01
 128 2 119662 8.7449535372887033e+02 7.8301510637107594e+02 1.8847013328410130e-13 3.1221549538101192e+02 7.9463079393123849e+02 1.1544963142345470e+04 -999 1.16910638e+00 7.518873315e-02 -1.91686641e-01
 129 2 119662 8.7840776183285936e+02 7.6675550863820786e+02 2.2540599681861879e-13 3.0293445406044748e+02 8.0045218083142254e+02 1.0431561359951827e+04 -999 1.17259820e+00 7.518281061e-02 -1.91715475e-01
 130 2 119662 8.8003855614282145e+02 7.6518630131636178e+02 2.4601144151326046e-13 3.0148601261111367e+02 8.0453631530523910e+02 1.1228391906235893e+04 -999 1.17415963e+00 7.515022480e-02 -1.91646492e-01
 131 2 119662 8.4188871930513915e+02 7.6871489598480309e+02 2.2832752234418617e-13 3.0131237654722389e+02 7.6359867911975846e+02 1.5414429448540743e+04 -999 1.17730120e+00 7.537917377e-02 -1.92203357e-01
 132 2 119662 8.1060116310558612e+02 7.6367022017800832e+02 2.3380842838488632e-13 3.0061936369955566e+02 7.3098693479325641e+02 1.1402797670509741e+04 -999 1.18046179e+00 7.556278565e-02 -1.92639210e-01
 133 2 119662 7.9028719323627774e+02 7.5280986101025655e+02 2.6769225835381306e-13 2.9844164157332551e+02 7.1102232244256334e+02 9.9651701516159628e+03 -999 1.18339012e+00 7.568996849e-02 -1.92928452e-01
 134 2 119662 7.7974456948882937e+02 7.5642890818861781e+02 3.3354895398661875e-13 2.9979402418089506e+02 7.0228452511106104e+02 1.2975761888407829e+04 -999 1.18606389e+00 7.575608472e-02 -1.93060188e-01
 135 2 119662 7.7179833127607094e+02 7.4056265238948401e+02 3.8617905235708754e-13 2.9587826962493449e+02 6.9657544449103887e+02 9.6353309939421779e+03 -999 1.18716421e+00 7.573756098e-02 -1.92975209e-01
 136 2 119662 7.2007647123390302e+02 7.4165417415173795e+02 3.5935959440687825e-13 2.9562949664969386e+02 6.4966149503796021e+02 1.2177322549517412e+04 -999 1.18802856e+00 7.567816098e-02 -1.92750374e-01
 137 2 119662 6.7099636105992477e+02 7.4533298233877588e+02 3.7076286175309979e-13 3.0127184494753936e+02 6.0466358171934576e+02 1.2576488246373663e+04 -999 1.18913699e+00 7.564085810e-02 -1.92564086e-01
 138 2 119662 6.2773442373484556e+02 7.4188569348437568e+02 4.2169765855491880e-13 3.0577704742664173e+02 5.6364630434719004e+02 1.5068269169300271e+04 -999 1.19035999e+00 7.561269596e-02 -1.92385297e-01
 139 2 119662 5.9698338078286190e+02 7.4629641838279679e+02 4.9083621949595414e-13 3.1257830147691334e+02 5.3399114781027197e+02 1.4595920141362405e+04 -999 1.19126409e+00 7.555600594e-02 -1.92138695e-01
 140 2 119662 5.8076342459433283e+02 7.5443061393838661e+02 5.3256587927771866e-13 3.2080768342666755e+02 5.1789338753542040e+02 1.3098999882339196e+04 -999 1.19168861e+00 7.549230700e-02 -1.91894164e-01
 141 2 119662 5.4245892946857282e+02 7.5454033977746951e+02 4.5836508364753351e-13 3.2026932837225280e+02 4.8203808489948153e+02 2.2445553695665298e+04 -999 1.19249156e+00 7.554766283e-02 -1.91954318e-01