TITLE = "005.01 ALPHA 1.50 GRIDLEVEL 4"

VARIABLES = "ITERATION"  "GRID_LEVEL"  "GRID_SIZE"  "CONTINUITY"  "MOMENTUMX"  "MOMENTUMY"  "MOMENTUMZ"  "ENERGY"  "TURB1"  "TURB2"  "CL_TOT"  "CD_TOT"  "CM_TOT"

DATASETAUXDATA ParticipantID   = "005"
DATASETAUXDATA SubmissionDate  = "10-31-2024"
DATASETAUXDATA Name            = "Jeffrey A. Housman"
DATASETAUXDATA Email           = "jeffrey.a.housman@nasa.gov"
DATASETAUXDATA Institution     = "NASA Ames Research Center"
DATASETAUXDATA SolverName      = "LAVA Curvilinear"
DATASETAUXDATA BasicAlgorithm  = "RANS"
DATASETAUXDATA TurbulenceModel = "SA-neg"
DATASETAUXDATA GridId          = "Multiblock"
DATASETAUXDATA Discretization  = "Finite difference"
DATASETAUXDATA Order           = "2"
DATASETAUXDATA DistanceCalc    = "Exact"
DATASETAUXDATA Notes           = " "

ZONE T = "005.01 - Alpha 1.50 - Grid Level 4"
AUXDATA Tstatic         = "271.0"
AUXDATA Deltat          = "-999"
AUXDATA GridFileName    = "ONERA-OAT15A_230mmChord_780mmSpan_upZ_2024_06_25-Structured_23mm_Level-4.x"
AUXDATA Misc            = " "
 0 4 430284 3.5600160647613427e+05 1.0267676061221277e+06 6.4512360057010093e-14 3.1579939150865423e+05 3.6339191118520143e+05 1.7090916037714495e+06 -999 6.62578213e-03 7.524890574e-01 -6.64959251e-04
 1 4 430284 5.2505914966794616e+05 7.8262328579125833e+05 5.5784693682606223e-14 2.5271858954049158e+05 5.0634583829139039e+05 1.1102915738726868e+06 -999 2.38223067e-02 7.015360434e-01 -1.12812006e-02
 2 4 430284 6.5080069693849620e+05 6.7554036054398550e+05 4.9227695279002432e-14 2.8209727443065494e+05 6.2109273218231939e+05 7.2431722825997695e+05 -999 4.29787320e-02 6.734455264e-01 -2.35994138e-02
 3 4 430284 7.6607131816616852e+05 6.1144783410491433e+05 4.4134148430863263e-14 3.4148158804853522e+05 7.3190784227345057e+05 4.7284419349232205e+05 -999 5.98061796e-02 6.571088847e-01 -3.38746471e-02
 4 4 430284 8.7052652149940107e+05 5.6344378281556908e+05 4.0115989421375802e-14 4.1257726859837311e+05 8.4056497860572499e+05 3.0328355494311836e+05 -999 7.66393869e-02 6.477393149e-01 -4.31445466e-02
 5 4 430284 9.7551079431992490e+05 5.6875016103032534e+05 3.6922634168606227e-14 4.8792529960437882e+05 9.6169332667598256e+05 1.9428512858981563e+05 -999 8.87372320e-02 6.410692161e-01 -4.99866991e-02
 6 4 430284 8.9302775033903483e+05 6.1315952137355006e+05 3.4467892876898430e-14 5.1789693052135652e+05 8.8304280869695370e+05 9.8608101740763377e+04 -999 9.68043702e-02 6.289735664e-01 -5.53136075e-02
 7 4 430284 9.1673720463615900e+05 6.3080175944449194e+05 3.2238854131254718e-14 5.4128502415447938e+05 9.0251326617550116e+05 7.8874469082031079e+04 -999 1.03808390e-01 6.138841918e-01 -6.01560506e-02
 8 4 430284 9.7899575151765090e+05 6.2569839148178766e+05 3.0593832725243334e-14 5.5383478897435556e+05 9.8548587678043207e+05 6.7698245063016278e+04 -999 1.09687401e-01 5.970742057e-01 -6.36689812e-02
 9 4 430284 1.1836536626225526e+06 6.8343676384089375e+05 2.9167865340500415e-14 6.1298239156464452e+05 1.2314552118527666e+06 6.0422093182952514e+04 -999 1.15983425e-01 5.764247768e-01 -6.68531719e-02
 10 4 430284 1.1091445664904511e+06 5.7746315629771783e+05 2.8370196799736930e-14 5.8254232970155135e+05 1.1486069238535529e+06 5.4457619972866698e+04 -999 1.19350409e-01 5.643066972e-01 -6.84791088e-02
 11 4 430284 1.0180471668108744e+06 5.6369416470872227e+05 2.7412844870265396e-14 5.6932568850368995e+05 1.0378452822058294e+06 4.9290241609569894e+04 -999 1.23110053e-01 5.495289315e-01 -7.04054560e-02
 12 4 430284 9.4676754311264970e+05 5.6975455183421110e+05 2.6647438167171326e-14 5.4691435327892075e+05 9.5864658060156961e+05 4.5062342987918048e+04 -999 1.25948337e-01 5.368437621e-01 -7.19102502e-02
 13 4 430284 1.0496454829764515e+06 5.8040370054911671e+05 2.6086392133088596e-14 5.6945127615231054e+05 1.0807145943251436e+06 4.1739078774713184e+04 -999 1.28592825e-01 5.231091889e-01 -7.34212165e-02
 14 4 430284 9.7887051470775774e+05 5.1030526324331341e+05 2.5659557945130476e-14 5.3352325000257837e+05 1.0038048076308087e+06 3.8879035532500086e+04 -999 1.29914613e-01 5.150459586e-01 -7.42566373e-02
 15 4 430284 1.1577748664049900e+06 6.6009342982687370e+05 2.5249715639132051e-14 5.8218511416877841e+05 1.2359884834394860e+06 3.6455848940062293e+04 -999 1.31379458e-01 5.054283661e-01 -7.52614183e-02
 16 4 430284 9.7459941551731422e+05 5.8144845118358172e+05 2.4802544240709150e-14 5.2265101897003828e+05 1.0345807389989876e+06 3.3636439323993538e+04 -999 1.32303101e-01 4.985073057e-01 -7.59237176e-02
 17 4 430284 8.6462307585047907e+05 4.8046604478341306e+05 2.4290974914136953e-14 4.9129341640810203e+05 8.7890005739699432e+05 3.1235360898646410e+04 -999 1.33427632e-01 4.895352553e-01 -7.67044710e-02
 18 4 430284 8.2168027100771375e+05 4.7035160672221676e+05 2.3864540118588733e-14 4.6991012963284098e+05 8.3077717690932797e+05 2.9153120628797828e+04 -999 1.34261326e-01 4.822540292e-01 -7.72341214e-02
 19 4 430284 9.5884767855735635e+05 5.1225195268298854e+05 2.3501636820815417e-14 4.8625507154301286e+05 1.0083470420778309e+06 2.7367830748743341e+04 -999 1.35064653e-01 4.746718038e-01 -7.76931786e-02
 20 4 430284 8.7742717415164853e+05 4.1488725908806460e+05 2.3299972093120061e-14 4.5995870775890059e+05 9.0988598931297357e+05 2.5811110868625357e+04 -999 1.35545858e-01 4.696959887e-01 -7.79381217e-02
 21 4 430284 8.0087076918072696e+05 4.2482864671427337e+05 2.2972940957738764e-14 4.3979406822858326e+05 8.2873136411394179e+05 2.4024459395302074e+04 -999 1.36001783e-01 4.640662540e-01 -7.81635236e-02
 22 4 430284 7.1858559981156432e+05 4.0998625603085035e+05 2.2607261450463816e-14 4.0960908693823096e+05 7.3558054002130241e+05 2.2456935123918942e+04 -999 1.36454732e-01 4.578805626e-01 -7.83871119e-02
 23 4 430284 7.4127052434593567e+05 4.1099944950212294e+05 2.2291792989500070e-14 4.0305608528658585e+05 7.5962162951119232e+05 2.1100250152253790e+04 -999 1.36887863e-01 4.511599198e-01 -7.86093500e-02
 24 4 430284 7.4538648526429280e+05 3.7139812229466107e+05 2.2129846825185551e-14 3.9503077195127920e+05 7.6276050277067686e+05 1.9912858463310022e+04 -999 1.37180202e-01 4.459804189e-01 -7.87711294e-02
 25 4 430284 8.0609679322249792e+05 4.1053594576240168e+05 2.1998992917419629e-14 3.9347536264505383e+05 8.5219859652998345e+05 1.8852019636606776e+04 -999 1.37413054e-01 4.414980406e-01 -7.89086685e-02
 26 4 430284 6.7974456183066394e+05 3.6410573287234479e+05 2.1759636899744528e-14 3.6279272856137715e+05 7.1582115125866223e+05 1.7624068983747115e+04 -999 1.37609986e-01 4.368755987e-01 -7.90326557e-02
 27 4 430284 5.9954265398279286e+05 3.4626267642004206e+05 2.1529643177067860e-14 3.3938708499168797e+05 6.1515037078891078e+05 1.6546944382720059e+04 -999 1.37813139e-01 4.319291439e-01 -7.91640145e-02
 28 4 430284 6.1135176347269351e+05 3.3645952466360881e+05 2.1341477919550134e-14 3.2932634643447702e+05 6.2348979784816201e+05 1.5591376085094069e+04 -999 1.38029321e-01 4.265395728e-01 -7.93056581e-02
 29 4 430284 6.2633031496266578e+05 3.1558154949349927e+05 2.1203784787226124e-14 3.2311093016193731e+05 6.4422406471943168e+05 1.4757898663981265e+04 -999 1.38190978e-01 4.224454525e-01 -7.94110282e-02
 30 4 430284 6.8709224464428960e+05 3.6167959649589204e+05 2.1083003392733669e-14 3.2498766301809880e+05 7.3038173880181508e+05 1.4013738548872820e+04 -999 1.38332239e-01 4.188260723e-01 -7.95013075e-02
 31 4 430284 5.7611809927260061e+05 3.1530169292602828e+05 2.0852617545409168e-14 2.9739164585215086e+05 6.1239254176909209e+05 1.3129316325709457e+04 -999 1.38450409e-01 4.152429536e-01 -7.95765779e-02
 32 4 430284 4.9106989356063865e+05 2.8758518356870220e+05 2.0594495510617751e-14 2.7330298819325055e+05 5.0780189067913813e+05 1.2331196937221774e+04 -999 1.38586342e-01 4.111272804e-01 -7.96622705e-02
 33 4 430284 4.7790909661805292e+05 2.7464276647392841e+05 2.0368368585342260e-14 2.5884065943667863e+05 4.8576533815201459e+05 1.1620778029549940e+04 -999 1.38725545e-01 4.069043443e-01 -7.97496571e-02
 34 4 430284 5.3809445270652510e+05 2.8547567760160024e+05 2.0207494755765287e-14 2.5998793067721167e+05 5.5980270390689676e+05 1.0992186259252941e+04 -999 1.38856529e-01 4.028991271e-01 -7.98318808e-02
 35 4 430284 5.3119979217356327e+05 2.6018525412174992e+05 2.0120125143723455e-14 2.5418342059024860e+05 5.5536250267000042e+05 1.0441046261959045e+04 -999 1.38946369e-01 4.001279186e-01 -7.98882827e-02
 36 4 430284 4.6013034244602197e+05 2.5334799218606445e+05 1.9912145974045806e-14 2.3461625500265122e+05 4.8575204773222673e+05 9.7958534373189232e+03 -999 1.39033636e-01 3.970017168e-01 -7.99441728e-02
 37 4 430284 3.8894065788648516e+05 2.3083923992305415e+05 1.9673332672437174e-14 2.1301042377816426e+05 4.0423978272661672e+05 9.2109438817754326e+03 -999 1.39131594e-01 3.935614009e-01 -8.00068738e-02
 38 4 430284 3.7152858293471648e+05 2.1512731243188088e+05 1.9442879511674033e-14 1.9901006737636795e+05 3.7605669937391340e+05 8.6790216488750757e+03 -999 1.39240870e-01 3.897889139e-01 -8.00767474e-02
 39 4 430284 4.0285958011911385e+05 2.1472817894390534e+05 1.9284303322953182e-14 1.9597042936385909e+05 4.1566561240012641e+05 8.2090401317740598e+03 -999 1.39336226e-01 3.865481485e-01 -8.01375452e-02
 40 4 430284 4.3155223219678010e+05 2.3464982456298181e+05 1.9176437408653206e-14 1.9542159764805043e+05 4.5794309874404856e+05 7.7940906051763786e+03 -999 1.39412418e-01 3.839893992e-01 -8.01859144e-02
 41 4 430284 3.6514521801612462e+05 2.0500299369396351e+05 1.8963494914592675e-14 1.7881505514583213e+05 3.9018024645048211e+05 7.3041576880078801e+03 -999 1.39480948e-01 3.813754231e-01 -8.02301124e-02
 42 4 430284 3.0082845662645128e+05 1.8558394102623151e+05 1.8705053412692460e-14 1.6179266758788846e+05 3.1560464894592733e+05 6.8622451122236816e+03 -999 1.39561620e-01 3.783721866e-01 -8.02821012e-02
 43 4 430284 2.7652261297830171e+05 1.6954459267398255e+05 1.8436249229907123e-14 1.4907416915120269e+05 2.7981194218733115e+05 6.4619089352440515e+03 -999 1.39650140e-01 3.751517437e-01 -8.03390851e-02
 44 4 430284 2.9941839804907813e+05 1.7133606404080568e+05 1.8223072103046975e-14 1.4501692606056662e+05 3.0731710523291345e+05 6.1027733532446864e+03 -999 1.39732447e-01 3.722169572e-01 -8.03919308e-02
 45 4 430284 3.2899089905684878e+05 1.8045228376113196e+05 1.8059311657183557e-14 1.4554414728951882e+05 3.4510365996720991e+05 5.7828768878875971e+03 -999 1.39804542e-01 3.696857059e-01 -8.04379992e-02
 46 4 430284 2.7839504714024812e+05 1.6371119795185892e+05 1.7854298522876979e-14 1.3301582145500355e+05 2.9797683091343945e+05 5.3835549801007164e+03 -999 1.39862443e-01 3.673936606e-01 -8.04758286e-02
 47 4 430284 2.2323166403548600e+05 1.4510148552006221e+05 1.7596891844850501e-14 1.1859541354177767e+05 2.3693729620270350e+05 5.0244263537143488e+03 -999 1.39932991e-01 3.646876077e-01 -8.05215711e-02
 48 4 430284 1.9639874545108623e+05 1.3107090899948395e+05 1.7322750922156521e-14 1.0693148262182355e+05 1.9982957894438185e+05 4.7033779679057543e+03 -999 1.40012465e-01 3.617066608e-01 -8.05730878e-02
 49 4 430284 2.0632348470416077e+05 1.2943326215565218e+05 1.7095098670501146e-14 1.0155521341022206e+05 2.1127754396913169e+05 4.4181510023112914e+03 -999 1.40087265e-01 3.589678746e-01 -8.06213025e-02
 50 4 430284 2.2539476869928068e+05 1.3900615751330208e+05 1.6919308044330206e-14 9.9886362583451861e+04 2.3778998893987105e+05 4.1659365552955178e+03 -999 1.40152627e-01 3.566289107e-01 -8.06629741e-02
 51 4 430284 1.9063248761754984e+05 1.2145469290731088e+05 1.6723773143983409e-14 9.1077722577420020e+04 2.0487749322620317e+05 3.8388773073270022e+03 -999 1.40207501e-01 3.544392558e-01 -8.06991346e-02
 52 4 430284 1.5261663760101935e+05 1.0697080658307757e+05 1.6478396256499314e-14 8.1353403142487718e+04 1.6399508204604784e+05 3.5312717061808394e+03 -999 1.40273624e-01 3.518450104e-01 -8.07429442e-02
 53 4 430284 1.3036512920198156e+05 9.6975587472092084e+04 1.6205852560285394e-14 7.2670885040143228e+04 1.3549013541973042e+05 3.2691446374128159e+03 -999 1.40349935e-01 3.489223423e-01 -8.07933167e-02
 54 4 430284 1.3051887937518062e+05 9.3567052625276701e+04 1.5965755417961846e-14 6.7585569374742015e+04 1.3438454550264135e+05 3.0377597263959410e+03 -999 1.40425558e-01 3.461158431e-01 -8.08425333e-02
 55 4 430284 1.3662678884444377e+05 9.5099409426559141e+04 1.5776765211324454e-14 6.4870330806607068e+04 1.4334447712846432e+05 2.8382297557140009e+03 -999 1.40494495e-01 3.436422380e-01 -8.08865059e-02
 56 4 430284 1.1719292756185558e+05 8.6874236744454567e+04 1.5581902065604532e-14 5.9811839883469758e+04 1.2534916851085860e+05 2.5635683154560697e+03 -999 1.40548301e-01 3.414473582e-01 -8.09236044e-02
 57 4 430284 9.4795477666247578e+04 7.9074728026841840e+04 1.5350134513152602e-14 5.3996083553527540e+04 1.0227940888908197e+05 2.3361386060014197e+03 -999 1.40613876e-01 3.388114345e-01 -8.09690302e-02
 58 4 430284 7.8551556821007383e+04 7.2354319287531122e+04 1.5060545318462741e-14 4.8227489546276185e+04 8.3132639015412657e+04 2.1220962533308743e+03 -999 1.40693310e-01 3.357095396e-01 -8.10233591e-02
 59 4 430284 7.3661108831551668e+04 6.8559181194104676e+04 1.4794017067790934e-14 4.4205851194167495e+04 7.6651569428753777e+04 1.9470572602659149e+03 -999 1.40774534e-01 3.326705652e-01 -8.10773861e-02
 60 4 430284 7.2013252848970689e+04 6.6366414305552724e+04 1.4569159822823470e-14 4.1459192843842240e+04 7.5034982636928980e+04 1.7977064761445438e+03 -999 1.40851309e-01 3.299202607e-01 -8.11270796e-02
 61 4 430284 6.2709495560727402e+04 6.2724719784314235e+04 1.4363793151197786e-14 3.8483425937985114e+04 6.6174426951255678e+04 1.6090004403222581e+03 -999 1.40905900e-01 3.275021804e-01 -8.11676215e-02
 62 4 430284 5.1771636033773771e+04 5.8813664447264237e+04 1.4098355476593374e-14 3.4981452201721382e+04 5.4832458611800634e+04 1.4360171621128584e+03 -999 1.40972357e-01 3.245492912e-01 -8.12170864e-02
 63 4 430284 4.2856187651181215e+04 5.4875995077175772e+04 1.3755128428500889e-14 3.1252648176956507e+04 4.4646996998154660e+04 1.2962444079379748e+03 -999 1.41053034e-01 3.210122990e-01 -8.12756057e-02
 64 4 430284 3.8382610588149138e+04 5.1780900105347093e+04 1.3435812600996089e-14 2.8222877952743573e+04 3.9348280544044006e+04 1.1824380225900729e+03 -999 1.41135470e-01 3.174880781e-01 -8.13326747e-02
 65 4 430284 3.5523005172865043e+04 4.9366264628871970e+04 1.3154874500832036e-14 2.5886697422314879e+04 3.6144705708608250e+04 1.0891167170402919e+03 -999 1.41212644e-01 3.142507581e-01 -8.13840969e-02
 66 4 430284 3.1497891435892656e+04 4.7046207548580547e+04 1.2907654713930067e-14 2.3948385615649029e+04 3.2118093354234319e+04 9.7094575897668392e+02 -999 1.41250300e-01 3.112953096e-01 -8.14151011e-02
 67 4 430284 2.6912479633510913e+04 4.4396492487167074e+04 1.2602986026520925e-14 2.1686843246826767e+04 2.7325847053916546e+04 8.7776983900006530e+02 -999 1.41291514e-01 3.076020310e-01 -8.14485403e-02
 68 4 430284 2.2921539309572312e+04 4.1530930355357275e+04 1.2212061149763404e-14 1.9245276677404650e+04 2.3052575439136617e+04 8.0997821815667203e+02 -999 1.41337215e-01 3.030673849e-01 -8.14807391e-02
 69 4 430284 2.0444143372621409e+04 3.9066049754830994e+04 1.1855226788905282e-14 1.7227438850547900e+04 2.0561728342254184e+04 7.6037665646867060e+02 -999 1.41381596e-01 2.985039076e-01 -8.15023984e-02
 70 4 430284 1.8807408220382244e+04 3.7041744742240437e+04 1.1542727211360708e-14 1.5711433551260705e+04 1.9096020413260576e+04 7.2279539421266588e+02 -999 1.41425503e-01 2.941831906e-01 -8.15138823e-02
 71 4 430284 1.6835864674025848e+04 3.5007886962856595e+04 1.1221792171389747e-14 1.4240252219894097e+04 1.7456084234998194e+04 6.7211068086956323e+02 -999 1.41460997e-01 2.894486077e-01 -8.14746803e-02
 72 4 430284 1.5010145915044150e+04 3.2717865576538177e+04 1.0846148595013517e-14 1.2840299009970589e+04 1.6030562583665616e+04 6.5730197189564615e+02 -999 1.41543509e-01 2.832239663e-01 -8.14152439e-02
 73 4 430284 1.4011765861553578e+04 3.0421699317200641e+04 1.0424890306343035e-14 1.1864827332330970e+04 1.5460879811502356e+04 6.8316730842334175e+02 -999 1.41725561e-01 2.754957087e-01 -8.13423246e-02
 74 4 430284 1.3974206338185237e+04 2.8600850181335212e+04 1.0095440285107985e-14 1.1550162724772896e+04 1.5763689084531341e+04 7.3802511938807902e+02 -999 1.42036384e-01 2.675733691e-01 -8.12909216e-02
 75 4 430284 1.4351128364685996e+04 2.7193853707621744e+04 9.8285527231540326e-15 1.1583413047261012e+04 1.6380496634831026e+04 8.4089794501050108e+02 -999 1.42489814e-01 2.597018895e-01 -8.12886999e-02
 76 4 430284 1.4060309409904614e+04 2.5181040896564977e+04 9.5073558296548622e-15 1.0796980317186764e+04 1.6304457719699754e+04 1.0576657678085894e+03 -999 1.43531847e-01 2.487724032e-01 -8.14575677e-02
 77 4 430284 1.4216219129766634e+04 2.3299915287471042e+04 9.2731323266496735e-15 1.0184427977917137e+04 1.6522386918905966e+04 1.6982212120936656e+03 -999 1.45478374e-01 2.333535489e-01 -8.19876205e-02
 78 4 430284 1.4525126907247321e+04 2.2377294181976114e+04 9.1482078160322111e-15 9.8686571920446422e+03 1.6696505966545083e+04 3.5419310170991271e+03 -999 1.48287750e-01 2.160551399e-01 -8.31389538e-02
 79 4 430284 1.4825537581336459e+04 2.2426764872094980e+04 9.0520078501170415e-15 9.8382880609503045e+03 1.6705264988433002e+04 9.9386433598696967e+03 -999 1.51462787e-01 1.989595394e-01 -8.50055083e-02
 80 4 430284 1.5266613600714883e+04 2.3274854254395366e+04 8.8438555811163598e-15 9.9426906167834095e+03 1.6829583699819650e+04 2.7385963632208961e+04 -999 1.54691583e-01 1.816118369e-01 -8.76759280e-02
 81 4 430284 1.3368290168343252e+04 1.9004243661853165e+04 2.6765254289635483e-14 8.9796282661158875e+03 1.4507896524192205e+04 1.3717652686474833e+05 -999 1.59095312e-01 1.578883477e-01 -9.27812555e-02
 82 4 430284 1.1873949931728514e+04 1.7501895550087353e+04 3.7800407764957079e-14 8.5383639839837106e+03 1.2789301938668958e+04 2.0093937502769151e+05 -999 1.62236962e-01 1.356223164e-01 -9.87195106e-02
 83 4 430284 1.1236489847922163e+04 2.8573282781851380e+04 3.6252344159948734e-14 8.3595933124400071e+03 1.3223824334109990e+04 1.2771273714746199e+05 -999 1.62391111e-01 1.301270937e-01 -1.00279631e-01
 84 4 430284 1.1074705282435169e+04 2.9464471645757349e+04 3.5496549960382380e-14 7.9420561617061712e+03 1.2757466302026216e+04 9.4904861827134097e+04 -999 1.62338344e-01 1.288101117e-01 -1.00631885e-01
 85 4 430284 1.0949017832773145e+04 3.4492273067663751e+04 3.4867237170126872e-14 7.8182617602782102e+03 1.2320742614582172e+04 6.8283699139147546e+04 -999 1.62284314e-01 1.277823518e-01 -1.00903649e-01
 86 4 430284 9.2655731178797232e+03 1.5399774674726725e+04 1.6694900086695155e-14 6.2764924026450235e+03 9.6649782189153539e+03 6.1307433763888570e+04 -999 1.62036298e-01 1.136754428e-01 -1.04711089e-01
 87 4 430284 8.3482332384042347e+03 1.4646386070662265e+04 1.0248863180199606e-14 5.3130729199369744e+03 8.5124949870779401e+03 4.1218037286013372e+04 -999 1.60807173e-01 1.068081564e-01 -1.06552422e-01
 88 4 430284 7.8310762576922580e+03 1.3957067188057947e+04 7.7936602860503940e-15 4.8317034612073676e+03 7.8726410482623924e+03 3.2321602160629402e+04 -999 1.59813431e-01 1.029307851e-01 -1.07547001e-01
 89 4 430284 7.5807307861385088e+03 1.3356931479623850e+04 6.6621181173613161e-15 4.5455186537293357e+03 7.5309901806571706e+03 2.7432787821807833e+04 -999 1.59233294e-01 1.004434329e-01 -1.08201754e-01
 90 4 430284 7.4375526827214644e+03 1.2893402220548494e+04 6.1346851157867897e-15 4.4014785302195241e+03 7.3196482524328767e+03 2.4644132318139877e+04 -999 1.58980063e-01 9.882003539e-02 -1.08661341e-01
 91 4 430284 6.2916842047213877e+03 1.0978480225364283e+04 2.7911652380389289e-13 3.7940864123079782e+03 6.1906809580104054e+03 2.5490341771579482e+04 -999 1.61084699e-01 9.416151542e-02 -1.10912364e-01
 92 4 430284 5.6674299694572501e+03 8.9563141224804676e+03 4.8594455575963573e-13 3.7080290467202417e+03 5.5698351829373987e+03 4.7710842931114123e+04 -999 1.68178399e-01 8.711764042e-02 -1.15815136e-01
 93 4 430284 6.1177450744716680e+03 1.0498037733318601e+04 4.8296570101400161e-13 3.8510786578784055e+03 6.1743415038744370e+03 1.3948081293507662e+05 -999 1.83279360e-01 8.043610441e-02 -1.23928668e-01
 94 4 430284 6.1032452918668760e+03 1.1347085140441932e+04 4.8396362396960201e-13 3.8238274351288778e+03 7.5383168478402577e+03 1.6239049298370923e+05 -999 1.92302585e-01 7.809639398e-02 -1.28545544e-01
 95 4 430284 5.9307956072024881e+03 1.1233877116231870e+04 4.9307636158750828e-13 3.9531841901711018e+03 1.0485411387449451e+04 2.8178673632424627e+05 -999 2.00166306e-01 7.633814325e-02 -1.32552945e-01
 96 4 430284 4.0625170334534996e+03 5.2358282752256700e+03 1.5665948817217235e-12 2.9404056541531963e+03 4.2508247200354390e+03 2.1623380941000159e+05 -999 2.23658622e-01 7.156263613e-02 -1.44684623e-01
 97 4 430284 3.2554210792334607e+03 4.7381019866558108e+03 1.6266168263993234e-12 2.3889604376400416e+03 3.4626792970981542e+03 1.4057702424510478e+05 -999 2.46825164e-01 6.698317493e-02 -1.56090551e-01
 98 4 430284 3.0535824409982870e+03 5.0955608887394164e+03 1.3826976559551204e-12 2.0935607810747993e+03 3.3035363229834579e+03 2.2340863777744453e+05 -999 2.70072149e-01 6.270505245e-02 -1.66361328e-01
 99 4 430284 3.0087746920364771e+03 4.4319765509284434e+03 1.1516885293946681e-12 1.7485978703728226e+03 3.1056794830778513e+03 1.5653356678838216e+05 -999 2.90073359e-01 5.948704966e-02 -1.74083000e-01
 100 4 430284 3.1947317488724393e+03 4.1358747628629535e+03 9.8810586733680792e-13 1.4884214871404301e+03 3.2027684870863441e+03 8.2738170197520129e+04 -999 3.15448680e-01 5.540207549e-02 -1.82352895e-01
 101 4 430284 3.1202823456608894e+03 3.0930615708980563e+03 1.1748282766533076e-12 1.1905345277498348e+03 3.1457467428423697e+03 5.5058056297286552e+04 -999 3.40599291e-01 5.141285752e-02 -1.88594396e-01
 102 4 430284 3.3118663786958305e+03 2.8453444425706311e+03 1.3164274301125200e-12 9.4253820771739925e+02 3.3472129240657277e+03 3.6753066369896806e+04 -999 3.68335534e-01 4.842214468e-02 -1.94089142e-01
 103 4 430284 3.5310603024500469e+03 2.7723716943231157e+03 1.1762275993892169e-12 8.3202504617802572e+02 3.6036786641391359e+03 2.3550521484444456e+04 -999 3.88469415e-01 4.662559741e-02 -1.97040065e-01
 104 4 430284 3.7417262982675893e+03 2.7582890705270370e+03 1.0715458942237962e-12 8.0982466049583172e+02 3.8463564920825424e+03 1.6142517468759163e+04 -999 4.01757578e-01 4.553530346e-02 -1.98548844e-01
 105 4 430284 3.8831259147578025e+03 2.7548820943771293e+03 9.8597905950079786e-13 8.0899719401784103e+02 4.0053097408631525e+03 1.5348404267609330e+04 -999 4.10280991e-01 4.488455928e-02 -1.99307890e-01
 106 4 430284 3.4443226510693225e+03 2.5178409555788362e+03 6.9465527919381610e-13 7.0183072544416621e+02 3.4954258338047825e+03 1.1774798468526218e+04 -999 4.27126174e-01 4.378039388e-02 -2.00588049e-01
 107 4 430284 3.4518452375222087e+03 2.4311086075859439e+03 6.5572497370972254e-13 6.7786076929638705e+02 3.4909881743869223e+03 1.0507558979527368e+04 -999 4.45278135e-01 4.270758012e-02 -2.01468813e-01
 108 4 430284 3.7450363272211175e+03 2.4606799953330997e+03 6.6029375482163917e-13 6.6074074656509242e+02 3.8445816455546578e+03 9.4157196816195665e+03 -999 4.61319331e-01 4.190861943e-02 -2.01843476e-01
 109 4 430284 4.0721536788176845e+03 2.5345199469060922e+03 6.6487961296953250e-13 6.6432400503169072e+02 4.2486811423268564e+03 8.4427084553671066e+03 -999 4.73758625e-01 4.141746231e-02 -2.01874330e-01
 110 4 430284 4.3826492552805130e+03 2.6241350858922629e+03 6.7441672819695512e-13 6.8893643430268355e+02 4.6329745001394203e+03 7.6897215891321694e+03 -999 4.83421078e-01 4.111331328e-02 -2.01728359e-01
 111 4 430284 3.7870659861958034e+03 2.3379979412098892e+03 5.2437231282839317e-13 5.7053658618119255e+02 3.9034757789255691e+03 7.1480480060694554e+03 -999 4.96428037e-01 4.085015877e-02 -2.01208054e-01
 112 4 430284 3.5617155984062765e+03 2.2126522247599705e+03 5.3915087345327543e-13 5.2316144544691690e+02 3.6119513120268784e+03 6.6024795937301860e+03 -999 5.12149706e-01 4.065307705e-02 -2.00327310e-01
 113 4 430284 3.5877197997582002e+03 2.1945621719656933e+03 6.0458146926150193e-13 4.7555773411435075e+02 3.6645124120272067e+03 6.1508559803478856e+03 -999 5.27247771e-01 4.059343626e-02 -1.99144934e-01
 114 4 430284 3.6281216932917991e+03 2.1891632751036054e+03 6.4392651641917131e-13 4.5088449136143311e+02 3.7379744434030454e+03 5.7053041444136743e+03 -999 5.38845096e-01 4.062394865e-02 -1.97937005e-01
 115 4 430284 3.6710720660006727e+03 2.2012525982147649e+03 6.6425635264048739e-13 4.4322389996025441e+02 3.8056096079773092e+03 5.3499044159470450e+03 -999 5.48213521e-01 4.068755227e-02 -1.96701519e-01
 116 4 430284 3.3533961253687803e+03 2.0594471885355215e+03 5.4407363076574119e-13 4.0241417470492991e+02 3.4219839141689026e+03 5.0663711405198692e+03 -999 5.55739103e-01 4.081752822e-02 -1.95469821e-01
 117 4 430284 3.1004246663596400e+03 1.9541145899630822e+03 4.9283478207865419e-13 3.7831621319590005e+02 3.1158051643783442e+03 4.9202785426641349e+03 -999 5.64958789e-01 4.103373817e-02 -1.93984908e-01
 118 4 430284 2.9224076581613886e+03 1.8859119428221652e+03 5.1959017474575062e-13 3.6139883867769743e+02 2.9143704363649035e+03 4.8737956597826778e+03 -999 5.76584647e-01 4.134672703e-02 -1.92013537e-01
 119 4 430284 2.8046048281523153e+03 1.8351153796008341e+03 5.5090567935287657e-13 3.4969145641756586e+02 2.7906014317644258e+03 4.6168014570186588e+03 -999 5.84672806e-01 4.158932514e-02 -1.90500732e-01
 120 4 430284 2.7135956256665695e+03 1.7960531559148333e+03 5.7215717015077578e-13 3.4153783085426880e+02 2.6969906746757852e+03 4.5095809611318546e+03 -999 5.91580356e-01 4.181379600e-02 -1.89106948e-01
 121 4 430284 2.5833142739662430e+03 1.7471025538713816e+03 4.7365908727170734e-13 3.2750358418636500e+02 2.5590449794598967e+03 4.4996878036022299e+03 -999 5.98440453e-01 4.209234276e-02 -1.87768032e-01
 122 4 430284 2.4638439864710635e+03 1.6934340811253201e+03 5.0042896252706252e-13 3.1845391349123150e+02 2.4293354661634730e+03 4.5725412335768497e+03 -999 6.06526032e-01 4.241598182e-02 -1.86151457e-01
 123 4 430284 2.3658677634611836e+03 1.6325220089979641e+03 5.7422328165584319e-13 3.1040606002862069e+02 2.3233805986613111e+03 4.6673104362492504e+03 -999 6.15264493e-01 4.274101601e-02 -1.84359366e-01
 124 4 430284 2.2748787136779715e+03 1.5815727383796768e+03 6.1873214398713503e-13 2.9502527828710419e+02 2.2311352940550532e+03 4.6826456480443840e+03 -999 6.23088419e-01 4.298425057e-02 -1.82694621e-01
 125 4 430284 2.2036157944646834e+03 1.5401803869875753e+03 6.3659637061116068e-13 2.9134546718137580e+02 2.1552230840439993e+03 4.6379815016883040e+03 -999 6.28673776e-01 4.312144958e-02 -1.81466900e-01
 126 4 430284 2.1237951634701499e+03 1.4911494465837507e+03 4.9618232706009316e-13 2.8369491737286194e+02 2.0711571361658675e+03 4.7183310315278759e+03 -999 6.33925959e-01 4.322712912e-02 -1.80296847e-01
 127 4 430284 2.0417444351274144e+03 1.4314405652856485e+03 4.5267316941261695e-13 2.7999325273238600e+02 1.9861118854224624e+03 4.9523496125597776e+03 -999 6.40533750e-01 4.330532852e-02 -1.78790686e-01
 128 4 430284 1.9668454770446483e+03 1.3709910669352139e+03 4.9093543514208129e-13 2.8365305249646542e+02 1.9063580487439215e+03 5.2472857734339923e+03 -999 6.47642051e-01 4.330136914e-02 -1.77111944e-01
 129 4 430284 1.9325546826255177e+03 1.3341975666719868e+03 5.1591380069562794e-13 2.8714833518821411e+02 1.8667035857950543e+03 5.2612933413026994e+03 -999 6.52246884e-01 4.322983204e-02 -1.75994728e-01
 130 4 430284 1.9067002110243388e+03 1.3079142745897557e+03 5.2562420975306339e-13 2.9225629372620983e+02 1.8415711971445012e+03 5.5009359591008460e+03 -999 6.56886243e-01 4.310290173e-02 -1.74857961e-01
 131 4 430284 1.8410281918364747e+03 1.2753420021298518e+03 4.4082311378714924e-13 2.9264022056627260e+02 1.7716300688414133e+03 5.6585744791462930e+03 -999 6.60403034e-01 4.295622684e-02 -1.73986051e-01
 132 4 430284 1.8034976222178439e+03 1.2384545877249871e+03 4.0739854907662989e-13 2.9871695458761752e+02 1.7258684313144595e+03 5.9288298896963224e+03 -999 6.64656581e-01 4.273064622e-02 -1.72956745e-01
 133 4 430284 1.7904832253050897e+03 1.2034888239195004e+03 4.1889607860520068e-13 3.0739795800148318e+02 1.7113738454730162e+03 6.2194524998127581e+03 -999 6.69465490e-01 4.239979905e-02 -1.71825091e-01
 134 4 430284 1.7635935973358341e+03 1.1786717879848768e+03 4.3143160897509309e-13 3.1252689266247700e+02 1.6843395171057191e+03 6.3529950531745908e+03 -999 6.73667163e-01 4.202188261e-02 -1.70865953e-01
 135 4 430284 1.7540786092954013e+03 1.1594903230604612e+03 4.3590318794065039e-13 3.1582262063242160e+02 1.6686190347926188e+03 6.4413016839553611e+03 -999 6.76510597e-01 4.171025604e-02 -1.70252141e-01
 136 4 430284 1.6791437148095426e+03 1.1311467359840196e+03 3.5741482792850775e-13 3.1407891459858348e+02 1.5920365801512778e+03 6.6189965284057362e+03 -999 6.79839322e-01 4.132166685e-02 -1.69606878e-01
 137 4 430284 1.6315261210644042e+03 1.1025633117281254e+03 3.6501022095952074e-13 3.1695978631002350e+02 1.5408530032740327e+03 6.8298136955708587e+03 -999 6.83916534e-01 4.078987349e-02 -1.68881838e-01
 138 4 430284 1.6235609108720446e+03 1.0789001780036422e+03 4.0302383969754866e-13 3.2285215017163148e+02 1.5290588435935092e+03 6.9949654505568187e+03 -999 6.88189728e-01 4.015117531e-02 -1.68189699e-01
 139 4 430284 1.6356998549673722e+03 1.0835962583684677e+03 4.2205698135502669e-13 3.2819004341986141e+02 1.5481317268397374e+03 7.0619748436514737e+03 -999 6.92067332e-01 3.949640852e-02 -1.67632115e-01
 140 4 430284 1.6299836282501092e+03 1.0834796522396243e+03 4.2530512200677637e-13 3.2904415339657288e+02 1.5421583953437657e+03 7.0493869447697425e+03 -999 6.94722971e-01 3.900824277e-02 -1.67299421e-01
 141 4 430284 1.5705568259123943e+03 1.0595162431816648e+03 3.3079324539957348e-13 3.2739231613318606e+02 1.4770781656671404e+03 7.2074955409344593e+03 -999 6.97592082e-01 3.846407142e-02 -1.66979121e-01