TITLE = "005.01 ALPHA 2.50 GRIDLEVEL 3"

VARIABLES = "ITERATION"  "GRID_LEVEL"  "GRID_SIZE"  "CONTINUITY"  "MOMENTUMX"  "MOMENTUMY"  "MOMENTUMZ"  "ENERGY"  "TURB1"  "TURB2"  "CL_TOT"  "CD_TOT"  "CM_TOT"

DATASETAUXDATA ParticipantID   = "005"
DATASETAUXDATA SubmissionDate  = "10-31-2024"
DATASETAUXDATA Name            = "Jeffrey A. Housman"
DATASETAUXDATA Email           = "jeffrey.a.housman@nasa.gov"
DATASETAUXDATA Institution     = "NASA Ames Research Center"
DATASETAUXDATA SolverName      = "LAVA Curvilinear"
DATASETAUXDATA BasicAlgorithm  = "RANS"
DATASETAUXDATA TurbulenceModel = "SA-neg"
DATASETAUXDATA GridId          = "Multiblock"
DATASETAUXDATA Discretization  = "Finite difference"
DATASETAUXDATA Order           = "2"
DATASETAUXDATA DistanceCalc    = "Exact"
DATASETAUXDATA Notes           = " "

ZONE T = "005.01 - Alpha 2.50 - Grid Level 3"
AUXDATA Tstatic         = "271.0"
AUXDATA Deltat          = "-999"
AUXDATA GridFileName    = "ONERA-OAT15A_230mmChord_780mmSpan_upZ_2024_06_25-Structured_23mm_Level-3.x"
AUXDATA Misc            = " "
 0 3 234820 2.6183534928932638e+05 6.3663730987911054e+05 4.4403142466996708e-14 2.3248201767900321e+05 2.6509837664972432e+05 9.8175270911028562e+05 -999 8.50525464e-03 6.038127992e-01 -4.28570030e-03
 1 3 234820 3.7147157576414751e+05 4.9737109583444084e+05 3.9151179808682422e-14 1.9034114790318269e+05 3.5864300284360920e+05 6.3684197661069361e+05 -999 3.84955436e-02 5.772641736e-01 -1.81744352e-02
 2 3 234820 4.5419593697034824e+05 4.3786660760734760e+05 3.5211253167274349e-14 2.1236692767897202e+05 4.3382105283828382e+05 4.1364996740234550e+05 -999 7.17338535e-02 5.671395732e-01 -3.37327669e-02
 3 3 234820 5.3550308289671491e+05 3.9960380561129807e+05 3.2171718681575377e-14 2.5021711547071632e+05 5.1116348267152737e+05 2.6817368469480437e+05 -999 1.00012389e-01 5.646148819e-01 -4.69601176e-02
 4 3 234820 6.1266698682464589e+05 3.7001728645394131e+05 2.9786101600528076e-14 2.9864412799757312e+05 5.9036172932716808e+05 1.7091127481776619e+05 -999 1.26216000e-01 5.667978550e-01 -5.80539083e-02
 5 3 234820 6.8829026722673140e+05 3.7407737568455713e+05 2.7930985212620913e-14 3.5046781237648363e+05 6.7472463390976412e+05 9.2695454658740709e+04 -999 1.46088734e-01 5.702844318e-01 -6.62515120e-02
 6 3 234820 6.3387199236940662e+05 4.1990893163868302e+05 2.6539415619064323e-14 3.7352171929422306e+05 6.2370433044037747e+05 6.6160181101680209e+04 -999 1.59141787e-01 5.673511974e-01 -7.23388975e-02
 7 3 234820 6.4881757560045796e+05 4.4138917260964494e+05 2.5279158428651820e-14 3.8970255298418371e+05 6.3416315334142256e+05 5.3121503645645469e+04 -999 1.69804158e-01 5.604892019e-01 -7.77897551e-02
 8 3 234820 7.0634794732986903e+05 4.4215723383854557e+05 2.4402680624172477e-14 3.9720761747203826e+05 7.0940578695303621e+05 4.5416927624521457e+04 -999 1.78457579e-01 5.498371411e-01 -8.19216118e-02
 9 3 234820 8.2249541640958516e+05 4.6131394621717138e+05 2.3792046327183692e-14 4.2931275168773351e+05 8.4401870691000985e+05 4.0316724037049942e+04 -999 1.87415369e-01 5.355352804e-01 -8.56456576e-02
 10 3 234820 8.0956814328574133e+05 4.2216160385371768e+05 2.3406700327654556e-14 4.1441301680896454e+05 8.3926864204498928e+05 3.6293783591134088e+04 -999 1.92673914e-01 5.263308886e-01 -8.76971703e-02
 11 3 234820 7.1285376981684659e+05 3.8679891973997361e+05 2.2900402386051522e-14 3.9791695290508197e+05 7.2340190870929928e+05 3.2864638080307785e+04 -999 1.99142882e-01 5.142555233e-01 -9.03349640e-02
 12 3 234820 6.7161794507100247e+05 4.0170232918030460e+05 2.2456717697569350e-14 3.8357494292890362e+05 6.7798375606546586e+05 3.0017617962518627e+04 -999 2.03786275e-01 5.048673161e-01 -9.22431569e-02
 13 3 234820 7.0663779482399719e+05 3.7723712498719920e+05 2.2068733052016733e-14 3.8562724469523609e+05 7.1650330047107534e+05 2.7648241785722388e+04 -999 2.08014927e-01 4.952876613e-01 -9.40267668e-02
 14 3 234820 6.9428814020463580e+05 3.6256217725828261e+05 2.1775665316653476e-14 3.6634143275116524e+05 7.1479849680702528e+05 2.5669041316459654e+04 -999 2.10318453e-01 4.891017391e-01 -9.50695981e-02
 15 3 234820 7.3760683508986211e+05 3.9548551635876700e+05 2.1519100687193885e-14 3.8139079690814216e+05 7.6492204249955481e+05 2.4028233670713311e+04 -999 2.12626812e-01 4.823126512e-01 -9.61897060e-02
 16 3 234820 6.6058209329433681e+05 3.8545095102990104e+05 2.1248857170264556e-14 3.5375710252114688e+05 6.8900017722651048e+05 2.2097191212182701e+04 -999 2.14206847e-01 4.769584514e-01 -9.70039889e-02
 17 3 234820 5.7078019938913581e+05 3.1604213621137571e+05 2.0935384320589451e-14 3.2195040784180636e+05 5.8184560030405526e+05 2.0445116600917572e+04 -999 2.16029515e-01 4.703668417e-01 -9.79405123e-02
 18 3 234820 5.6817976378922560e+05 3.2656173108917900e+05 2.0668254864824794e-14 3.1330822992672154e+05 5.7871438967756776e+05 1.9066111755136397e+04 -999 2.17654909e-01 4.639297732e-01 -9.87397635e-02
 19 3 234820 5.8410549276285910e+05 2.9626723376857472e+05 2.0469920705704896e-14 3.0939059759313083e+05 5.9531356321582349e+05 1.7855932058266699e+04 -999 2.18977648e-01 4.580844437e-01 -9.93432716e-02
 20 3 234820 6.0297050149941887e+05 3.0140508733843302e+05 2.0350324961751074e-14 2.9961340434324322e+05 6.3052142406483274e+05 1.6776182397956214e+04 -999 2.19879843e-01 4.536020822e-01 -9.97205660e-02
 21 3 234820 5.0805049855519913e+05 2.7038498553446279e+05 2.0141917423425012e-14 2.7610673205862648e+05 5.2854653222801269e+05 1.5525797572317975e+04 -999 2.20776220e-01 4.482561792e-01 -1.00068229e-01
 22 3 234820 4.5816400375295460e+05 2.6568298489731888e+05 1.9941123945618253e-14 2.5983319496128566e+05 4.6713313667284051e+05 1.4455347760905901e+04 -999 2.21600720e-01 4.428942930e-01 -1.00370746e-01
 23 3 234820 4.6511968841471116e+05 2.5105907448516341e+05 1.9749596563478294e-14 2.5129696079701211e+05 4.7099898471164342e+05 1.3516182826172537e+04 -999 2.22432878e-01 4.369858006e-01 -1.00665763e-01
 24 3 234820 4.6244979792958486e+05 2.4302046690363780e+05 1.9622546939362349e-14 2.4141025903589558e+05 4.7780812081581872e+05 1.2704303200680242e+04 -999 2.22962736e-01 4.327483837e-01 -1.00852055e-01
 25 3 234820 5.4196120876780991e+05 3.0310009125250077e+05 1.9491807549124855e-14 2.5578201899640457e+05 5.7650010177043313e+05 1.1985645201475141e+04 -999 2.23514076e-01 4.279414797e-01 -1.01051004e-01
 26 3 234820 4.4142355664367008e+05 2.6835878871840565e+05 1.9275048336582291e-14 2.2657585380834446e+05 4.7279401518374035e+05 1.1147854006577623e+04 -999 2.23884001e-01 4.238785135e-01 -1.01187149e-01
 27 3 234820 3.6807335890244285e+05 2.1804919617638615e+05 1.9044239969564254e-14 2.0389363798779360e+05 3.8178888741122506e+05 1.0402218913194003e+04 -999 2.24262428e-01 4.195011164e-01 -1.01331229e-01
 28 3 234820 3.5409795999387489e+05 2.0405072757891563e+05 1.8830985466698069e-14 1.9181382681272161e+05 3.5840992665644974e+05 9.7371002103584924e+03 -999 2.24642559e-01 4.148523515e-01 -1.01480449e-01
 29 3 234820 3.6925790754643583e+05 2.0205688664419341e+05 1.8693781922610932e-14 1.8627427552635787e+05 3.8449619775285677e+05 9.1614383705673899e+03 -999 2.24923457e-01 4.112288859e-01 -1.01593469e-01
 30 3 234820 4.2973616950292920e+05 2.4733008048369852e+05 1.8582851897700236e-14 1.9480933286238945e+05 4.5933489037511323e+05 8.6454848742108188e+03 -999 2.25211776e-01 4.073930809e-01 -1.01710566e-01
 31 3 234820 3.5323096579515107e+05 2.2165628584815297e+05 1.8380708626344851e-14 1.7374666997107872e+05 3.8290128688801627e+05 7.9895106378607643e+03 -999 2.25403305e-01 4.042756266e-01 -1.01785555e-01
 32 3 234820 2.8264942838218040e+05 1.7944877685047631e+05 1.8134014639169144e-14 1.5284498896801908e+05 3.0049465362333943e+05 7.4106866036182828e+03 -999 2.25625673e-01 4.006317733e-01 -1.01871906e-01
 33 3 234820 2.5321446881488245e+05 1.5778625601545619e+05 1.7880489111430871e-14 1.3821855730764210e+05 2.5785548116427133e+05 6.8952456200161832e+03 -999 2.25867600e-01 3.966133233e-01 -1.01964706e-01
 34 3 234820 2.6965896733216592e+05 1.5444098666148912e+05 1.7678389020999256e-14 1.3322655714667149e+05 2.7792216148508189e+05 6.4432509287416424e+03 -999 2.26083095e-01 3.929663154e-01 -1.02046757e-01
 35 3 234820 2.7766749798499956e+05 1.5515263659251551e+05 1.7548583720706022e-14 1.2995013071623407e+05 2.9325477829775028e+05 6.0503671250619273e+03 -999 2.26243229e-01 3.902079966e-01 -1.02107827e-01
 36 3 234820 2.3590957801615872e+05 1.3854268827656307e+05 1.7348764602080600e-14 1.1802179433259869e+05 2.5269237430945339e+05 5.5147101674744090e+03 -999 2.26380753e-01 3.873419819e-01 -1.02158799e-01
 37 3 234820 1.9113873233819631e+05 1.2552499001262645e+05 1.7099807694523829e-14 1.0491790585654166e+05 2.0337282544040828e+05 5.0465508182461890e+03 -999 2.26541029e-01 3.840275651e-01 -1.02218597e-01
 38 3 234820 1.6630750576017177e+05 1.1167016412479262e+05 1.6820824594263979e-14 9.3218585844492045e+04 1.7041161323022845e+05 4.6419240093602693e+03 -999 2.26719855e-01 3.803650365e-01 -1.02285620e-01
 39 3 234820 1.7293362703832320e+05 1.0866754594712965e+05 1.6577041205381890e-14 8.7031604176289489e+04 1.7772599165782443e+05 4.2924643992637002e+03 -999 2.26889281e-01 3.769334417e-01 -1.02349295e-01
 40 3 234820 1.8410672792962476e+05 1.0963891576205275e+05 1.6382492287234080e-14 8.4477053761660907e+04 1.9276090939371995e+05 3.9896002834233773e+03 -999 2.27036805e-01 3.739614092e-01 -1.02405165e-01
 41 3 234820 1.5554731374656010e+05 1.0048498671027322e+05 1.6165761881413385e-14 7.6406640594959143e+04 1.6702743077271368e+05 3.5974054567189305e+03 -999 2.27149483e-01 3.713041991e-01 -1.02447049e-01
 42 3 234820 1.2173271203698312e+05 9.0108284693938025e+04 1.5886818389214578e-14 6.6971595847822187e+04 1.3130431725070879e+05 3.2571761578951950e+03 -999 2.27288389e-01 3.680935210e-01 -1.02499443e-01
 43 3 234820 1.0067792695202278e+05 8.0891225622538710e+04 1.5574423786718453e-14 5.8373493172218172e+04 1.0462491575571962e+05 2.9664715411291963e+03 -999 2.27447961e-01 3.644930773e-01 -1.02560528e-01
 44 3 234820 9.9711363948435275e+04 7.7448874970514138e+04 1.5298163205674552e-14 5.3375370557307928e+04 1.0301599229972922e+05 2.7185923719523480e+03 -999 2.27599654e-01 3.611509008e-01 -1.02619661e-01
 45 3 234820 1.0332942502996414e+05 7.7278044474307782e+04 1.5068294749539887e-14 5.0600012170729773e+04 1.0897245715854022e+05 2.5082606244772087e+03 -999 2.27733981e-01 3.582400148e-01 -1.02673327e-01
 46 3 234820 8.8214709709528091e+04 7.0893300136652178e+04 1.4859232398809693e-14 4.6278392093966911e+04 9.5159250590857264e+04 2.2126133307473997e+03 -999 2.27834473e-01 3.556608300e-01 -1.02715311e-01
 47 3 234820 7.0480880241193547e+04 6.4622926742953823e+04 1.4630009572579184e-14 4.1321977442238036e+04 7.7042427829066757e+04 1.9725430936653479e+03 -999 2.27955889e-01 3.525892812e-01 -1.02767138e-01
 48 3 234820 5.6604599258855407e+04 5.8887707967913935e+04 1.4383106424063259e-14 3.6312614171692920e+04 6.0796006724191291e+04 1.7656935373831620e+03 -999 2.28101540e-01 3.489694411e-01 -1.02830663e-01
 49 3 234820 5.1422323040567513e+04 5.5435721963947195e+04 1.4164506305463576e-14 3.2738968961235492e+04 5.3969629437984600e+04 1.5841564154616801e+03 -999 2.28247424e-01 3.454060066e-01 -1.02896263e-01
 50 3 234820 4.9349803763382421e+04 5.3459433354467030e+04 1.3975259247157011e-14 3.0348289768791696e+04 5.1765201168774140e+04 1.4495487822013190e+03 -999 2.28379213e-01 3.422166520e-01 -1.02958198e-01
 51 3 234820 4.3017827795143254e+04 5.0667969407444885e+04 1.3674489858290374e-14 2.8113640188116096e+04 4.5690190993485841e+04 1.2590618961628957e+03 -999 2.28475912e-01 3.394167668e-01 -1.02998933e-01
 52 3 234820 3.5596540654252633e+04 4.7623504896623061e+04 1.3305570967648806e-14 2.5513320311878157e+04 3.7951695509243240e+04 1.1061758323777979e+03 -999 2.28596001e-01 3.359770894e-01 -1.03047508e-01
 53 3 234820 2.9244395310430526e+04 4.4476002012787823e+04 1.2866167054081221e-14 2.2746165353093558e+04 3.0677122623345600e+04 9.8122083457768986e+02 -999 2.28743091e-01 3.318134658e-01 -1.03103668e-01
 54 3 234820 2.5763326330869520e+04 4.1912412237033699e+04 1.2427599424201619e-14 2.0484296708714694e+04 2.6516438570944130e+04 8.8250232619303608e+02 -999 2.28892018e-01 3.276002928e-01 -1.03157367e-01
 55 3 234820 2.3573735920873751e+04 3.9876451627682975e+04 1.2056380945345936e-14 1.8886535059423491e+04 2.3977850565943227e+04 8.0393244462622954e+02 -999 2.29010451e-01 3.236956078e-01 -1.03209941e-01
 56 3 234820 2.1106936172525184e+04 3.7964826452142537e+04 1.1722459107018295e-14 1.7412011460947015e+04 2.1445926150618809e+04 7.1129873807674255e+02 -999 2.29073613e-01 3.199454098e-01 -1.03210319e-01
 57 3 234820 1.8408374527587494e+04 3.5763188335127743e+04 1.1319973213134866e-14 1.5723740853532257e+04 1.8642320888309965e+04 6.4138445557526245e+02 -999 2.29146461e-01 3.151836954e-01 -1.03198723e-01
 58 3 234820 1.6101820306588415e+04 3.3381340907946906e+04 1.0836271694429744e-14 1.3953803667712022e+04 1.6312612764664760e+04 5.9345885294591028e+02 -999 2.29233088e-01 3.092806980e-01 -1.03167902e-01
 59 3 234820 1.4703899588296155e+04 3.1317901374154302e+04 1.0379820209893362e-14 1.2525862339251351e+04 1.5108794696176696e+04 5.6030477087709414e+02 -999 2.29327769e-01 3.032390867e-01 -1.03120880e-01
 60 3 234820 1.3876678103379558e+04 2.9616309329553256e+04 9.9711516684731392e-15 1.1474536668368115e+04 1.4588279446398234e+04 5.3577804882314786e+02 -999 2.29436752e-01 2.973946166e-01 -1.03066766e-01
 61 3 234820 1.2800633761574185e+04 2.7765612287181346e+04 9.5527154789728759e-15 1.0513114703082820e+04 1.3877025161874359e+04 5.0468389543569259e+02 -999 2.29573879e-01 2.903017502e-01 -1.02949781e-01
 62 3 234820 1.2075911908815982e+04 2.5683378653319654e+04 9.0232282521417006e-15 9.7258433075368775e+03 1.3551793859044279e+04 5.0377208030332440e+02 -999 2.29881595e-01 2.806883916e-01 -1.02816641e-01
 63 3 234820 1.2085482517300588e+04 2.3694381371558760e+04 8.5595008651286169e-15 9.4392142998653344e+03 1.3878878339105013e+04 5.3119579665637582e+02 -999 2.30489768e-01 2.688662884e-01 -1.02732112e-01
 64 3 234820 1.2576627930235352e+04 2.2165512003735181e+04 8.2189245727679502e-15 9.5878356251256846e+03 1.4530388479239422e+04 5.7921334426037879e+02 -999 2.31410400e-01 2.566810828e-01 -1.02798367e-01
 65 3 234820 1.3074394415399818e+04 2.1013280358239917e+04 8.0178502494982599e-15 9.8101252277275526e+03 1.5074938667543413e+04 6.7202939275752635e+02 -999 2.32606286e-01 2.444153730e-01 -1.03080546e-01
 66 3 234820 1.2747909596302867e+04 1.9089653926124767e+04 7.6548529559227641e-15 8.9629411148715062e+03 1.4654244756937611e+04 9.2659785027305543e+02 -999 2.34788376e-01 2.254659210e-01 -1.04110510e-01
 67 3 234820 1.2455848607304135e+04 1.7918767512097264e+04 7.3499303643259000e-15 8.3704570081840920e+03 1.3980559865406962e+04 2.0764007659656445e+03 -999 2.38006572e-01 1.989532910e-01 -1.06480699e-01
 68 3 234820 1.1873622292039157e+04 1.7447079530151808e+04 6.9935884782415884e-15 8.4019802812942307e+03 1.2818905398296563e+04 5.2307244591501822e+03 -999 2.40493776e-01 1.721913115e-01 -1.10268752e-01
 69 3 234820 1.1660527891299847e+04 1.7094289645513600e+04 6.4510715429147573e-15 8.3740904893379011e+03 1.2150577335291391e+04 7.8771828307325359e+03 -999 2.40292599e-01 1.610978671e-01 -1.12307930e-01
 70 3 234820 1.1616397730172901e+04 1.6953935016522362e+04 6.1294591194226305e-15 8.3158553881874013e+03 1.1874135628642885e+04 9.7820079191500681e+03 -999 2.39662713e-01 1.554458352e-01 -1.13330956e-01
 71 3 234820 9.4984606856357004e+03 1.4139578949316014e+04 5.6210870970339585e-15 7.4572549921809132e+03 9.8965071979491149e+03 3.2028389368682914e+04 -999 2.35805399e-01 1.388396257e-01 -1.15845552e-01
 72 3 234820 8.0999915603544732e+03 1.4152161244613750e+04 5.1283732007945466e-15 6.3735251620302815e+03 8.2285573955781601e+03 8.6772215693358812e+04 -999 2.27360800e-01 1.214204517e-01 -1.17283351e-01
 73 3 234820 7.6423961360923176e+03 2.4159050825129205e+04 4.6751593623601560e-15 5.1455508003949844e+03 8.7188619572479183e+03 4.6248880784509071e+04 -999 2.19234620e-01 1.109347997e-01 -1.16560330e-01
 74 3 234820 7.4364758022639708e+03 2.7570750145055135e+04 4.3572135625884899e-15 5.1021956238298962e+03 1.1762732625968480e+04 2.6386535261020970e+04 -999 2.17896928e-01 1.091902598e-01 -1.16245553e-01
 75 3 234820 7.1661385801964279e+03 2.9642374624799104e+04 4.2628812470967333e-15 5.0223987445854982e+03 1.4014352317198151e+04 1.7593944389038414e+04 -999 2.17181769e-01 1.082223250e-01 -1.16054384e-01
 76 3 234820 6.2403197113918250e+03 1.8501813418126407e+04 4.1834436814377212e-15 4.5028116002025317e+03 8.0033411162880157e+03 1.5004301469747410e+04 -999 2.13598403e-01 1.033863281e-01 -1.15171438e-01
 77 3 234820 5.6453782373852337e+03 1.3858267938877898e+04 4.0739868629162006e-15 4.3891604999995179e+03 5.7968668626264807e+03 1.3612928330761439e+04 -999 2.11365603e-01 9.932789317e-02 -1.14335624e-01
 78 3 234820 5.3390126002612024e+03 1.1856892156838656e+04 3.9701830128744888e-15 4.4272160425031034e+03 5.2654410461105754e+03 1.2544983139620434e+04 -999 2.10792031e-01 9.591495632e-02 -1.13745081e-01
 79 3 234820 5.2660665329940430e+03 1.0772141808658354e+04 3.8091208535304694e-15 4.4914204191048293e+03 5.1448355715820244e+03 1.2922055028752920e+04 -999 2.11855808e-01 9.358400657e-02 -1.13636513e-01
 80 3 234820 5.1617519463513445e+03 1.0194737534201124e+04 3.6695197964214332e-15 4.5122832326153548e+03 5.0210361094118671e+03 1.3597650356213133e+04 -999 2.13195868e-01 9.228046120e-02 -1.13769625e-01
 81 3 234820 4.7564775768643622e+03 7.6886923497075441e+03 4.5933889523706285e-15 3.9379737463597612e+03 4.5847110531715743e+03 2.1696768959825222e+04 -999 2.36725785e-01 8.470327778e-02 -1.20171495e-01
 82 3 234820 4.8970272135182659e+03 8.2693196086992921e+03 4.8805119019112370e-15 3.7718395177293751e+03 4.8190090820584428e+03 5.3496434473522524e+04 -999 2.68112910e-01 7.941831226e-02 -1.31692019e-01
 83 3 234820 5.4023301893851722e+03 1.1778047729634096e+04 4.9057441782045699e-15 3.4609877483430241e+03 7.1832345425769090e+03 9.5243893948785379e+04 -999 2.99684457e-01 7.525812922e-02 -1.45223438e-01
 84 3 234820 5.2391278854918019e+03 9.5076197328520993e+03 4.4337686660737585e-15 3.2535705793623974e+03 9.3780753859897213e+03 1.3414475597465542e+05 -999 3.11011365e-01 7.386684668e-02 -1.50297493e-01
 85 3 234820 4.6302863981598102e+03 8.1037454834604405e+03 4.2398174150582172e-15 3.1950562728083059e+03 9.0980973793476041e+03 3.8929099032991158e+05 -999 3.20378405e-01 7.271209037e-02 -1.54384784e-01
 86 3 234820 3.0264129934207044e+03 4.0622957249249985e+03 8.2514506542708285e-13 2.6269567028612141e+03 3.1299278469553078e+03 2.9585704196764139e+05 -999 3.45998948e-01 6.974370909e-02 -1.65428756e-01
 87 3 234820 2.7146316148146716e+03 3.7658637224004024e+03 8.7661732600187801e-13 2.2336708488267968e+03 2.8394851244707297e+03 1.5183261216455704e+05 -999 3.70983874e-01 6.665716454e-02 -1.75207269e-01
 88 3 234820 2.5422480153445813e+03 5.6869893477503538e+03 1.4104113627489749e-12 2.2714610026525334e+03 3.1788801111465045e+03 1.2641130789906804e+05 -999 3.84216173e-01 6.509840953e-02 -1.79602492e-01
 89 3 234820 2.4870337953064081e+03 5.6160808498980796e+03 1.5459619565952761e-12 1.8656653930933594e+03 3.0704194257190329e+03 6.8187997029938124e+04 -999 3.88702940e-01 6.461040112e-02 -1.80950306e-01
 90 3 234820 2.4482297199597747e+03 4.1989924047369486e+03 1.1098461683746783e-12 1.8100538416946831e+03 2.7122019900125997e+03 4.1420881344252026e+04 -999 3.92322564e-01 6.422315150e-02 -1.81998001e-01
 91 3 234820 2.1317766329512269e+03 2.4547153942106793e+03 2.9181458751484677e-12 1.2294514296718746e+03 2.0554158924036474e+03 7.2329014416988284e+04 -999 4.42907691e-01 5.988827189e-02 -1.93791444e-01
 92 3 234820 2.1156825387126410e+03 2.2787619133822682e+03 4.5863369808709353e-12 8.7362836611059129e+02 2.0649281244055969e+03 4.2204174045879234e+04 -999 4.91199716e-01 5.705696821e-02 -2.01039195e-01
 93 3 234820 2.2669370897948734e+03 2.1663540923054811e+03 4.1426308332609128e-12 6.6467446185046492e+02 2.2583208385511784e+03 2.2198780286581801e+04 -999 5.29363241e-01 5.568785253e-02 -2.04268515e-01
 94 3 234820 2.4968805147637740e+03 2.1053575688365881e+03 4.0114483081728337e-12 5.7426770847007674e+02 2.5356661620020400e+03 1.3295993054819037e+04 -999 5.55954199e-01 5.516412576e-02 -2.05367875e-01
 95 3 234820 2.8382501555287145e+03 2.1012051491142461e+03 4.1356946612323235e-12 5.3561776025214328e+02 2.9432146793687930e+03 1.0144358142679685e+04 -999 5.77535815e-01 5.502621282e-02 -2.05657185e-01
 96 3 234820 1.9127982953668529e+03 1.6910259033653049e+03 3.0622522749862864e-12 4.0518052022775811e+02 1.8849838567411962e+03 7.6094914089580607e+03 -999 6.20318010e-01 5.578546695e-02 -2.04715346e-01
 97 3 234820 1.5466156629266047e+03 1.4741800852406152e+03 3.3309691816058089e-12 3.1750275051066461e+02 1.4850422234248183e+03 5.8247376246194881e+03 -999 6.60871493e-01 5.667801354e-02 -2.02393455e-01
 98 3 234820 1.3795706148356583e+03 1.3161924629021798e+03 4.4970880471417798e-12 2.5883075863404673e+02 1.3143269281614678e+03 5.0318457743952204e+03 -999 7.03911586e-01 5.772488372e-02 -1.98615846e-01
 99 3 234820 1.3024375231971246e+03 1.2841492005603170e+03 4.9130231217184261e-12 2.4194269190939613e+02 1.2354903779679712e+03 4.6529942899499711e+03 -999 7.19316567e-01 5.804498757e-02 -1.96717457e-01
 100 3 234820 1.2344117480519897e+03 1.2395342434560573e+03 4.9578140695952590e-12 2.2882436219815401e+02 1.1656413621323436e+03 4.6529454612107138e+03 -999 7.36321657e-01 5.831232131e-02 -1.94459010e-01
 101 3 234820 1.1441066190958425e+03 1.3591138922286368e+03 5.5611401280441971e-12 2.4120194256574635e+02 1.0779856502953155e+03 5.8841445301713075e+03 -999 7.49096641e-01 5.792193080e-02 -1.92957133e-01
 102 3 234820 1.0614666952447160e+03 1.4601368632271206e+03 5.6382830400152565e-12 2.5470311130478024e+02 9.9729133129115769e+02 6.5342127820516516e+03 -999 7.63174789e-01 5.739431131e-02 -1.91316969e-01
 103 3 234820 9.8696682652991535e+02 1.3667681156085146e+03 5.3695872298658552e-12 2.5364536017792992e+02 9.1840848937009457e+02 6.7714958264730712e+03 -999 7.78567302e-01 5.668585183e-02 -1.89554915e-01
 104 3 234820 9.3572386121254442e+02 1.1474125544218791e+03 5.0932802292544957e-12 2.4569366691542641e+02 8.5725840591006454e+02 5.9998889559086801e+03 -999 7.95844763e-01 5.572592189e-02 -1.87651290e-01
 105 3 234820 9.1999112992303537e+02 1.0821845080549447e+03 5.0066682886813233e-12 2.4487752530809928e+02 8.3666138511853273e+02 5.7240992322576139e+03 -999 8.05932140e-01 5.507521753e-02 -1.86512916e-01
 106 3 234820 8.7878693852324955e+02 1.1408521977432556e+03 4.2809825644415788e-12 3.2135271954173840e+02 7.8904136186997175e+02 6.0101176248114380e+03 -999 8.20978930e-01 5.403355470e-02 -1.85318915e-01
 107 3 234820 8.6963240920858129e+02 1.2087391406692677e+03 4.3898267901900061e-12 4.2215668735063667e+02 7.7495666269800540e+02 6.2741189660841446e+03 -999 8.38056685e-01 5.283770711e-02 -1.84075219e-01
 108 3 234820 8.8677999598107306e+02 1.2594933785097860e+03 4.2655754112573775e-12 5.0472421853701627e+02 7.8991008010712653e+02 6.7586717748342344e+03 -999 8.56462796e-01 5.149058139e-02 -1.82694260e-01
 109 3 234820 9.0246184464588237e+02 1.2525889457797546e+03 4.1875102933965125e-12 5.3376648165263089e+02 8.0590859772670944e+02 6.5472665362717453e+03 -999 8.68439829e-01 5.048112386e-02 -1.81625585e-01
 110 3 234820 9.1939456927678737e+02 1.2536259660225599e+03 4.1602729825923694e-12 5.5327160018648999e+02 8.2404842007752359e+02 6.9249941498407807e+03 -999 8.78823172e-01 4.956875003e-02 -1.80565411e-01
 111 3 234820 8.7606257505517226e+02 1.2172913022312437e+03 3.5489755488122405e-12 4.8376695488818137e+02 7.7903943465357008e+02 6.5021584640533429e+03 -999 8.83615057e-01 4.925184818e-02 -1.80220773e-01
 112 3 234820 8.4835213461572118e+02 1.1745974777003951e+03 3.0183069510784781e-12 4.2859603361810133e+02 7.4879479151004102e+02 7.4057852579067585e+03 -999 8.89737151e-01 4.884523242e-02 -1.79858466e-01
 113 3 234820 8.3334680757605940e+02 1.1271573069542851e+03 2.6216453236057220e-12 3.9329882735418551e+02 7.3335961812876701e+02 6.8747344836593293e+03 -999 8.96684070e-01 4.837620229e-02 -1.79529671e-01
 114 3 234820 8.3604912324570557e+02 1.0623292736293081e+03 2.3526549342811233e-12 3.6662505890456282e+02 7.3620324111940533e+02 6.6954257132396451e+03 -999 9.04323411e-01 4.783199388e-02 -1.79162622e-01
 115 3 234820 8.3857311920823861e+02 1.0347559734944739e+03 2.2604742572928278e-12 3.5686119056494357e+02 7.3959557876171982e+02 6.7538285133688460e+03 -999 9.08171052e-01 4.753331235e-02 -1.78919415e-01
 116 3 234820 8.1796398739768279e+02 1.0100300961662508e+03 1.9862893185225720e-12 3.5229634256901301e+02 7.2045464026524371e+02 7.1044683618035806e+03 -999 9.12602989e-01 4.723888036e-02 -1.78577758e-01
 117 3 234820 8.0566471638024109e+02 9.8290798446679287e+02 1.7694983645294549e-12 3.4573784458355556e+02 7.0879493932566311e+02 7.3992907140947809e+03 -999 9.18133737e-01 4.687220174e-02 -1.78206455e-01
 118 3 234820 7.9662617873175577e+02 9.6225357523093555e+02 1.6568120591201690e-12 3.4779628369458436e+02 6.9987559518125090e+02 8.3440504439254692e+03 -999 9.24556226e-01 4.641432648e-02 -1.77781781e-01
 119 3 234820 8.0420462836758043e+02 9.7189644145370926e+02 1.7092929138190432e-12 3.5502339329921591e+02 7.0808147735956152e+02 8.0860757512228274e+03 -999 9.29701291e-01 4.592665150e-02 -1.77109906e-01
 120 3 234820 8.1059758306226206e+02 9.9911728114553250e+02 1.7597567943197533e-12 3.6185099867180764e+02 7.1632770595366776e+02 7.9754320375649741e+03 -999 9.33055656e-01 4.557348096e-02 -1.76634547e-01
 121 3 234820 7.9789370495945400e+02 9.1500280268063364e+02 1.4008701952959836e-12 3.1418420627438081e+02 7.0630447811635190e+02 8.6623312213105801e+03 -999 9.34901081e-01 4.528179586e-02 -1.76138424e-01
 122 3 234820 8.0562362823638421e+02 8.3105258139191415e+02 1.1813974694658525e-12 2.7190627174484882e+02 7.1660730729036368e+02 1.0031539162143299e+04 -999 9.37241326e-01 4.489369395e-02 -1.75456685e-01
 123 3 234820 8.3648701218279348e+02 7.5659404987423443e+02 1.1963994285915129e-12 2.4315409068343376e+02 7.5072401200078684e+02 9.3741037565799070e+03 -999 9.40403342e-01 4.440393009e-02 -1.74604003e-01
 124 3 234820 8.4388916031831116e+02 7.3378066680125744e+02 1.2511323005948764e-12 2.3339257205711044e+02 7.6053296913463350e+02 9.0022961280601394e+03 -999 9.42476558e-01 4.414327272e-02 -1.74183675e-01
 125 3 234820 8.6646036059879475e+02 7.3127156711144346e+02 1.3357428976126632e-12 2.2556916906746022e+02 7.8363173739218996e+02 8.8738605747833717e+03 -999 9.45084268e-01 4.383556408e-02 -1.73692027e-01
 126 3 234820 8.4955089988432974e+02 7.1292209448398125e+02 1.1430520834384819e-12 2.1976472926870193e+02 7.6595661593969680e+02 9.1546669479705033e+03 -999 9.46594585e-01 4.366462122e-02 -1.73409365e-01
 127 3 234820 8.4052284661687702e+02 6.9661215959018318e+02 1.0021875539788890e-12 2.1501091511670924e+02 7.5623011104380907e+02 1.0145417727531174e+04 -999 9.48546452e-01 4.345676662e-02 -1.73066077e-01
 128 3 234820 8.3907496199730758e+02 6.8053293996047137e+02 9.5105100004448301e-13 2.1048945012720665e+02 7.5535890744965297e+02 9.2980049522243735e+03 -999 9.51031906e-01 4.320751244e-02 -1.72655209e-01
 129 3 234820 8.6043277138405733e+02 6.6903289668594550e+02 9.9628573282411617e-13 2.0708327631796871e+02 7.7642584690001104e+02 9.2353083395098420e+03 -999 9.54125416e-01 4.290298670e-02 -1.72144157e-01
 130 3 234820 8.6395544221797206e+02 6.6681502763654498e+02 1.0188456938815033e-12 2.0638001087193979e+02 7.8219789454027034e+02 8.8660822857347121e+03 -999 9.55647960e-01 4.275767113e-02 -1.71903523e-01
 131 3 234820 8.3641230894652529e+02 6.5731332590503814e+02 1.7780500601055098e-12 2.0089936314772169e+02 7.5300392251939331e+02 8.7650824248663266e+03 -999 9.57859650e-01 4.256848474e-02 -1.71589306e-01
 132 3 234820 8.2965274200647002e+02 6.4995117636742566e+02 2.7737228135766709e-12 1.9837532958999361e+02 7.4443156187870989e+02 8.0620058106581137e+03 -999 9.60493632e-01 4.236463401e-02 -1.71264614e-01
 133 3 234820 8.3019599593556541e+02 6.4389990765468986e+02 3.3829133483672918e-12 1.9692392894421948e+02 7.4681878461600809e+02 7.8413403579871474e+03 -999 9.63169140e-01 4.216261141e-02 -1.70945829e-01
 134 3 234820 8.3503633547729351e+02 6.5028626838345656e+02 2.2247973787937060e-12 1.9729768442672392e+02 7.5258917370902316e+02 7.9785978411721590e+03 -999 9.65734480e-01 4.196160058e-02 -1.70626464e-01
 135 3 234820 8.4179787687837575e+02 6.4537108589337640e+02 1.5843018365830665e-12 1.9708538533225311e+02 7.5902537516535972e+02 7.6017547834314055e+03 -999 9.67071561e-01 4.184927425e-02 -1.70445588e-01
 136 3 234820 8.0190088712061356e+02 6.2965455833920976e+02 1.2947929061169255e-12 1.9460394678345500e+02 7.1870874214740945e+02 7.5899664328398740e+03 -999 9.69262193e-01 4.168045094e-02 -1.70169468e-01
 137 3 234820 7.8673036260039919e+02 6.1853130975287525e+02 1.2010362192966969e-12 1.9271363466909358e+02 7.0256070974279487e+02 8.2489343162878158e+03 -999 9.71912818e-01 4.148286912e-02 -1.69845555e-01
 138 3 234820 7.8629275845386883e+02 6.1270750245035390e+02 1.1230846666333007e-12 1.9140546466911684e+02 7.0414280076523414e+02 7.6833162433340694e+03 -999 9.74332143e-01 4.128886260e-02 -1.69516481e-01
 139 3 234820 7.8919930035074253e+02 6.2843154391163421e+02 1.1298087936421288e-12 1.9052330260410875e+02 7.0857716950640997e+02 7.7517709451820301e+03 -999 9.76469749e-01 4.109844245e-02 -1.69181312e-01
 140 3 234820 7.9565178007458167e+02 6.2478137198868421e+02 1.1026679591263401e-12 1.8993798826918851e+02 7.1376395325046599e+02 7.6365071791601340e+03 -999 9.77800407e-01 4.098836502e-02 -1.68996976e-01
 141 3 234820 7.6449255522779345e+02 6.0715023007614093e+02 9.1659003556827665e-13 1.8871990468841997e+02 6.8223007393932494e+02 7.4283902478380769e+03 -999 9.79343711e-01 4.087599232e-02 -1.68816347e-01