TITLE = "005.01 ALPHA 1.50 GRIDLEVEL 5"

VARIABLES = "ITERATION"  "GRID_LEVEL"  "GRID_SIZE"  "CONTINUITY"  "MOMENTUMX"  "MOMENTUMY"  "MOMENTUMZ"  "ENERGY"  "TURB1"  "TURB2"  "CL_TOT"  "CD_TOT"  "CM_TOT"

DATASETAUXDATA ParticipantID   = "005"
DATASETAUXDATA SubmissionDate  = "10-31-2024"
DATASETAUXDATA Name            = "Jeffrey A. Housman"
DATASETAUXDATA Email           = "jeffrey.a.housman@nasa.gov"
DATASETAUXDATA Institution     = "NASA Ames Research Center"
DATASETAUXDATA SolverName      = "LAVA Curvilinear"
DATASETAUXDATA BasicAlgorithm  = "RANS"
DATASETAUXDATA TurbulenceModel = "SA-neg"
DATASETAUXDATA GridId          = "Multiblock"
DATASETAUXDATA Discretization  = "Finite difference"
DATASETAUXDATA Order           = "2"
DATASETAUXDATA DistanceCalc    = "Exact"
DATASETAUXDATA Notes           = " "

ZONE T = "005.01 - Alpha 1.50 - Grid Level 5"
AUXDATA Tstatic         = "271.0"
AUXDATA Deltat          = "-999"
AUXDATA GridFileName    = "ONERA-OAT15A_230mmChord_780mmSpan_upZ_2024_06_25-Structured_23mm_Level-5.x"
AUXDATA Misc            = " "
 0 5 752103 4.6824141435393377e+05 1.5508738420232863e+06 7.6802109493453970e-14 4.2979900057265768e+05 4.8627125295426440e+05 2.7052921607667711e+06 -999 7.97684052e-03 9.091212764e-01 -1.33648352e-03
 1 5 752103 7.0979811752473004e+05 1.1548416226523416e+06 6.5388252902495484e-14 3.3365209056298545e+05 6.8590274130152026e+05 1.7590715282728360e+06 -999 2.51507234e-02 8.295578651e-01 -1.17549951e-02
 2 5 752103 8.8169098716102261e+05 9.7950993035580136e+05 5.7002030321631652e-14 3.7264794549704588e+05 8.4231233903450856e+05 1.1486688685601370e+06 -999 4.46113335e-02 7.816935959e-01 -2.41333814e-02
 3 5 752103 1.0327880967073172e+06 8.7696352328389313e+05 5.0624333910665092e-14 4.5423577337311034e+05 9.8835018619082577e+05 7.5426600560364872e+05 -999 6.22082003e-02 7.502617951e-01 -3.45751598e-02
 4 5 752103 1.1630209326102245e+06 8.0357440226978029e+05 4.5666652253852447e-14 5.4987866419161751e+05 1.1256266172719067e+06 4.8806831614922627e+05 -999 7.90852242e-02 7.286137262e-01 -4.38421274e-02
 5 5 752103 1.2980226657077572e+06 8.0710110648649570e+05 4.1784569545886891e-14 6.5012036385991203e+05 1.2872420554508641e+06 3.1539337270195771e+05 -999 9.09080812e-02 7.115448463e-01 -5.06695530e-02
 6 5 752103 1.1833379739519677e+06 8.3803034525960917e+05 3.8853424520354055e-14 6.8576797975556157e+05 1.1753004468956932e+06 1.6798006806501167e+05 -999 9.88065456e-02 6.899301933e-01 -5.60287547e-02
 7 5 752103 1.2161458331026949e+06 8.4828163886441651e+05 3.6245036516545528e-14 7.1760669149602379e+05 1.2049995932796695e+06 1.1956786332692234e+05 -999 1.05780967e-01 6.666449384e-01 -6.08640549e-02
 8 5 752103 1.2812051150086136e+06 8.3114303315185546e+05 3.4325166418995647e-14 7.3835728431358759e+05 1.2905945051625667e+06 9.8879109050994375e+04 -999 1.11666801e-01 6.436825916e-01 -6.44081451e-02
 9 5 752103 1.5560498493372009e+06 9.1043390862361668e+05 3.2727342225656756e-14 8.1863821795903647e+05 1.6280110105331060e+06 8.7085649173612139e+04 -999 1.17786310e-01 6.180812761e-01 -6.75744208e-02
 10 5 752103 1.4518451404830052e+06 7.5542865914514067e+05 3.1816793527418335e-14 7.8696598257814336e+05 1.4973727982995519e+06 7.8202571376235705e+04 -999 1.21068023e-01 6.028374854e-01 -6.92177441e-02
 11 5 752103 1.3746353180572412e+06 7.8000509230126510e+05 3.0762141137285103e-14 7.7954758573222277e+05 1.4071696188150651e+06 7.0829770545664418e+04 -999 1.24296241e-01 5.859705501e-01 -7.09470506e-02
 12 5 752103 1.2742396214162714e+06 7.6060579626173177e+05 2.9738379920646957e-14 7.5121599923437031e+05 1.2909396702438737e+06 6.5090786488674101e+04 -999 1.26901924e-01 5.701736527e-01 -7.23976525e-02
 13 5 752103 1.4275953118684506e+06 8.0942369291860680e+05 2.8786343506072255e-14 7.8988722435860324e+05 1.4775273692373764e+06 6.0504641361505172e+04 -999 1.29264851e-01 5.536234231e-01 -7.38172099e-02
 14 5 752103 1.3415625816655895e+06 6.9085929327057849e+05 2.8213047734186998e-14 7.5297482594519260e+05 1.3702165326015707e+06 5.6511897263196392e+04 -999 1.30582940e-01 5.433584939e-01 -7.46773123e-02
 15 5 752103 1.5459404491888764e+06 8.3642232841904729e+05 2.7771365422820337e-14 7.9083205278071994e+05 1.6426288941595431e+06 5.3135917433781673e+04 -999 1.31872467e-01 5.329603998e-01 -7.55705433e-02
 16 5 752103 1.2938747762786429e+06 7.2644554823562561e+05 2.7226870212444167e-14 7.2074001492921321e+05 1.3592403631394999e+06 4.9171934647736947e+04 -999 1.32892201e-01 5.239454696e-01 -7.62716123e-02
 17 5 752103 1.1958617021322532e+06 6.7843103294482001e+05 2.6659754396607340e-14 6.9641124661627598e+05 1.2155588203278624e+06 4.5791519015442056e+04 -999 1.33947563e-01 5.138671404e-01 -7.69604624e-02
 18 5 752103 1.1724089229188408e+06 6.3722961122704612e+05 2.6254376310078846e-14 6.7890143874137045e+05 1.1838806291689747e+06 4.2944537352409003e+04 -999 1.34774840e-01 5.050586963e-01 -7.74524589e-02
 19 5 752103 1.3042798362685910e+06 6.8222719368297968e+05 2.5948813185486084e-14 6.8406134773867042e+05 1.3671013803862310e+06 4.0488954544040789e+04 -999 1.35444557e-01 4.971331456e-01 -7.78141907e-02
 20 5 752103 1.2933544730896296e+06 6.2901107151057303e+05 2.5729026259632952e-14 6.8912749785796797e+05 1.3420021786626312e+06 3.8295032431417276e+04 -999 1.35926519e-01 4.907701317e-01 -7.80616455e-02
 21 5 752103 1.1745986033654800e+06 6.5225160157058341e+05 2.5355685212269260e-14 6.4953475963579549e+05 1.2256919746273567e+06 3.5756530068775020e+04 -999 1.36305597e-01 4.846253756e-01 -7.82565766e-02
 22 5 752103 1.0435045530239709e+06 5.7503004142075230e+05 2.4921733070578094e-14 6.0449625721638394e+05 1.0668416501136257e+06 3.3551032773949672e+04 -999 1.36717980e-01 4.772608156e-01 -7.84717686e-02
 23 5 752103 1.0486296655651580e+06 5.9239714403685124e+05 2.4527879649344487e-14 5.9275108756271773e+05 1.0725646507681401e+06 3.1625017761852552e+04 -999 1.37072754e-01 4.702464965e-01 -7.86643820e-02
 24 5 752103 1.1991341597274700e+06 6.3540671160031506e+05 2.4241817866819375e-14 6.1393989418315713e+05 1.2622640188108580e+06 2.9943713354709838e+04 -999 1.37390348e-01 4.634052191e-01 -7.88468197e-02
 25 5 752103 1.1316818044305486e+06 5.3427593406293867e+05 2.4011673548659385e-14 5.8842719797902217e+05 1.1834434692194874e+06 2.8446037773266802e+04 -999 1.37575403e-01 4.590604818e-01 -7.89596596e-02
 26 5 752103 1.0156434957740407e+06 5.3296228678325075e+05 2.3614086113160840e-14 5.5746311474565743e+05 1.0603885899885888e+06 2.6696582935768776e+04 -999 1.37750497e-01 4.541467223e-01 -7.90712834e-02
 27 5 752103 9.0404354930114257e+05 5.0797741926692729e+05 2.3163395718925054e-14 5.1983863962176879e+05 9.2746724358414102e+05 2.5144182035687783e+04 -999 1.37945990e-01 4.485058547e-01 -7.91984934e-02
 28 5 752103 9.1008584382364771e+05 5.0802927155292948e+05 2.2776380849442542e-14 5.0655015129262977e+05 9.3130143923581042e+05 2.3783109066450845e+04 -999 1.38136397e-01 4.429434435e-01 -7.93226183e-02
 29 5 752103 1.0433903764885879e+06 5.5360835310138331e+05 2.2516632107165077e-14 5.2115760937960446e+05 1.0996657863696436e+06 2.2581001692361926e+04 -999 1.38317966e-01 4.375828803e-01 -7.94389086e-02
 30 5 752103 1.0027437260894104e+06 4.7004043307081028e+05 2.2403399926407940e-14 5.0717649631667882e+05 1.0489305353090020e+06 2.1503826131633192e+04 -999 1.38434805e-01 4.340803250e-01 -7.95125151e-02
 31 5 752103 8.8837367097987130e+05 4.7636285467569984e+05 2.2167805383659796e-14 4.7465888253707672e+05 9.3408786446173221e+05 2.0246195958865505e+04 -999 1.38548837e-01 4.300983356e-01 -7.95851599e-02
 32 5 752103 7.7315067912814871e+05 4.3457946798989398e+05 2.1934667834509452e-14 4.3775504981652787e+05 7.9689523179487826e+05 1.9118744637702857e+04 -999 1.38679008e-01 4.255555264e-01 -7.96681897e-02
 33 5 752103 7.6786806826649117e+05 4.2614249685682892e+05 2.1782573529248943e-14 4.2198172319714277e+05 7.8173739726941742e+05 1.8118431807876987e+04 -999 1.38812433e-01 4.208832356e-01 -7.97535246e-02
 34 5 752103 8.4100193317896465e+05 4.4454711888428667e+05 2.1751815811405351e-14 4.2165831953451032e+05 8.8157729663846805e+05 1.7230939785748367e+04 -999 1.38921521e-01 4.170464803e-01 -7.98235637e-02
 35 5 752103 9.6821291239940771e+05 5.5210697606896504e+05 2.1775639931502888e-14 4.4187346781973803e+05 1.0457192926863194e+06 1.6435754835480620e+04 -999 1.39024332e-01 4.134210481e-01 -7.98897450e-02
 36 5 752103 8.0111617670481803e+05 4.6779034579647705e+05 2.1593123607856804e-14 3.9972530097243929e+05 8.6739288671619573e+05 1.5508571233577284e+04 -999 1.39101165e-01 4.103002179e-01 -7.99400923e-02
 37 5 752103 6.5994836277542438e+05 3.8598840605841903e+05 2.1376132970137849e-14 3.6336810271686042e+05 6.9008248626743001e+05 1.4665097226065469e+04 -999 1.39195462e-01 4.065321441e-01 -8.00018600e-02
 38 5 752103 6.3204230241930299e+05 3.6378004724476539e+05 2.1186291819042974e-14 3.4407258406966756e+05 6.4225933092318207e+05 1.3911409926713884e+04 -999 1.39293078e-01 4.027026459e-01 -8.00657465e-02
 39 5 752103 6.9950313474871311e+05 3.7774523387513909e+05 2.1083506255442337e-14 3.4271022819730116e+05 7.2876546780180093e+05 1.3242582239573603e+04 -999 1.39380520e-01 3.993284774e-01 -8.01228643e-02
 40 5 752103 7.7624679888234241e+05 4.1140153394030553e+05 2.1051558049820946e-14 3.5170568378224882e+05 8.2483564658645878e+05 1.2639579025794228e+04 -999 1.39458694e-01 3.963548909e-01 -8.01737268e-02
 41 5 752103 6.5259142811124155e+05 3.6923680412705132e+05 2.0819412234335810e-14 3.2041606956507213e+05 7.0252113053568092e+05 1.1869312050123996e+04 -999 1.39523416e-01 3.935901448e-01 -8.02163715e-02
 42 5 752103 5.3443450000823650e+05 3.1594693451009085e+05 2.0535129520595766e-14 2.8959020015668281e+05 5.6242200282703701e+05 1.1171835286863959e+04 -999 1.39599771e-01 3.904010174e-01 -8.02667117e-02
 43 5 752103 4.9783352542839199e+05 2.8769739213098277e+05 2.0249979597626948e-14 2.6906878845730337e+05 5.0392156725260237e+05 1.0544012221830677e+04 -999 1.39686359e-01 3.868692379e-01 -8.03237287e-02
 44 5 752103 5.4387767976098612e+05 2.9336140596743143e+05 2.0062321114903845e-14 2.6466423094880633e+05 5.6188003116989939e+05 9.9938434254070489e+03 -999 1.39764480e-01 3.837610940e-01 -8.03749440e-02
 45 5 752103 5.9572890238436533e+05 3.2517363407983235e+05 1.9953567424587464e-14 2.6639653896817751e+05 6.3457126640825393e+05 9.5058850395990175e+03 -999 1.39829257e-01 3.812396602e-01 -8.04170779e-02
 46 5 752103 5.0431751172380452e+05 2.7811114609750593e+05 1.9715537343977455e-14 2.4372276140954765e+05 5.4253098504811188e+05 8.8770141496395354e+03 -999 1.39887451e-01 3.787173127e-01 -8.04555974e-02
 47 5 752103 4.1319149246566393e+05 2.4609056044053240e+05 1.9436835578071562e-14 2.2065995268380095e+05 4.3733983790858893e+05 8.3098095609378779e+03 -999 1.39955067e-01 3.758508616e-01 -8.05004443e-02
 48 5 752103 3.7526906132777454e+05 2.2388506723902747e+05 1.9168883763461311e-14 2.0295199812131282e+05 3.8178610594986926e+05 7.8020274330202137e+03 -999 1.40031097e-01 3.727080567e-01 -8.05507680e-02
 49 5 752103 3.9992348569647380e+05 2.2265339167807790e+05 1.9000264539687934e-14 1.9630179112055863e+05 4.0995412409939343e+05 7.3588553223352264e+03 -999 1.40102981e-01 3.698213298e-01 -8.05979580e-02
 50 5 752103 4.3744669747190486e+05 2.3864698049158830e+05 1.8933108140393591e-14 1.9576909165309437e+05 4.5988155956751300e+05 6.9678442358312113e+03 -999 1.40166811e-01 3.673304423e-01 -8.06392988e-02
 51 5 752103 3.7398860479328607e+05 2.0973387049581288e+05 1.8726791572934759e-14 1.7909263472568648e+05 3.9998881339586939e+05 6.4601851473318075e+03 -999 1.40220906e-01 3.650378075e-01 -8.06747947e-02
 52 5 752103 3.0410721439686499e+05 1.8376385294244369e+05 1.8460792520228357e-14 1.6072414969791970e+05 3.2369091067842342e+05 6.0033370066496800e+03 -999 1.40286706e-01 3.622929046e-01 -8.07183126e-02
 53 5 752103 2.6828923933900247e+05 1.6586419096341863e+05 1.8184500443094911e-14 1.4527532743026671e+05 2.7565401849479176e+05 5.6006465850454488e+03 -999 1.40361547e-01 3.592423597e-01 -8.07678250e-02
 54 5 752103 2.7633692438806227e+05 1.6231556264794312e+05 1.7988801808342960e-14 1.3726314890489320e+05 2.8289618983666459e+05 5.2494234492096393e+03 -999 1.40434549e-01 3.563573782e-01 -8.08156581e-02
 55 5 752103 2.9563706505448074e+05 1.6995440026556022e+05 1.7896251149831890e-14 1.3382699950448296e+05 3.0953752862577041e+05 4.9180812165318703e+03 -999 1.40501978e-01 3.537817275e-01 -8.08591131e-02
 56 5 752103 2.5439273143192625e+05 1.5165076160160621e+05 1.7711583928002647e-14 1.2295722669291880e+05 2.7124834944795188e+05 4.5107441853550172e+03 -999 1.40554521e-01 3.515460744e-01 -8.08952088e-02
 57 5 752103 2.0738106061853320e+05 1.3448500434641377e+05 1.7481730988176864e-14 1.1049820256105944e+05 2.2199931597469634e+05 4.1502998979424701e+03 -999 1.40618656e-01 3.488575968e-01 -8.09396467e-02
 58 5 752103 1.7819050955275426e+05 1.2096191927269637e+05 1.7226223965175332e-14 9.8839715571951121e+04 1.8600778396686056e+05 3.8294107202997357e+03 -999 1.40694594e-01 3.457631875e-01 -8.09919644e-02
 59 5 752103 1.7572370411361774e+05 1.1556444617339638e+05 1.7047980760638631e-14 9.1511937827359434e+04 1.8135437318061863e+05 3.5356897130695302e+03 -999 1.40771131e-01 3.427753798e-01 -8.10436107e-02
 60 5 752103 1.7927777492571488e+05 1.1461615489329820e+05 1.6968031509722458e-14 8.7026746645873922e+04 1.8682982344059955e+05 3.3059060444393899e+03 -999 1.40842368e-01 3.401230649e-01 -8.10904575e-02
 61 5 752103 1.5535788904795854e+05 1.0556422966827621e+05 1.6785175832677008e-14 8.0552757750876102e+04 1.6465975759626037e+05 2.9846091997699655e+03 -999 1.40895724e-01 3.378481908e-01 -8.11295307e-02
 62 5 752103 1.2720397500646733e+05 9.6380207684691559e+04 1.6552641347106801e-14 7.2966091680337704e+04 1.3582983956143406e+05 2.7096414048015872e+03 -999 1.40961263e-01 3.350967279e-01 -8.11776539e-02
 63 5 752103 1.0661140590209677e+05 8.8105921853949709e+04 1.6282228805161243e-14 6.5318738379528622e+04 1.1200717137738505e+05 2.4705663908848483e+03 -999 1.41041015e-01 3.318637243e-01 -8.12350670e-02
 64 5 752103 9.9646964907165355e+04 8.2900482308184291e+04 1.6058235839074665e-14 5.8985393654308420e+04 1.0334073370901498e+05 2.2704245279165020e+03 -999 1.41123790e-01 3.286843669e-01 -8.12921273e-02
 65 5 752103 9.6335339065483466e+04 7.9477297577695470e+04 1.5912610694454669e-14 5.4426984094045547e+04 9.9876363339477801e+04 2.1012323857080096e+03 -999 1.41202717e-01 3.258121888e-01 -8.13446562e-02
 66 5 752103 8.4118953272715677e+04 7.4863846348940788e+04 1.5722276620577729e-14 5.0288870683329376e+04 8.8295500122346828e+04 1.8725459307152912e+03 -999 1.41255778e-01 3.233867302e-01 -8.13854089e-02
 67 5 752103 6.9508883440106554e+04 6.9845097418350764e+04 1.5477549037529758e-14 4.5375233653067902e+04 7.3299887046053991e+04 1.6840892826793227e+03 -999 1.41320649e-01 3.204265598e-01 -8.14349631e-02
 68 5 752103 5.7293315076213265e+04 6.4740582576540146e+04 1.5177715725004779e-14 4.0048950985883894e+04 5.9622993618268272e+04 1.5279630088344404e+03 -999 1.41400758e-01 3.168599566e-01 -8.14938715e-02
 69 5 752103 5.0912564042853955e+04 6.0712860493499742e+04 1.4909915566865888e-14 3.5671379319070154e+04 5.2304493361168883e+04 1.4015226048520465e+03 -999 1.41483964e-01 3.133128318e-01 -8.15513924e-02
 70 5 752103 4.6622711467696317e+04 5.7528284554292310e+04 1.4695491960419933e-14 3.2269753040733744e+04 4.7594420644393118e+04 1.2979858774784736e+03 -999 1.41563236e-01 3.100618241e-01 -8.16035884e-02
 71 5 752103 4.0834127964797051e+04 5.4505877620317035e+04 1.4486463074532909e-14 2.9415924913761795e+04 4.1915738237013342e+04 1.1568724074556203e+03 -999 1.41603011e-01 3.071451333e-01 -8.16329361e-02
 72 5 752103 3.4067334277447459e+04 5.1078933057034767e+04 1.4214038034417322e-14 2.6124351098677434e+04 3.4954751553917078e+04 1.0516486613967629e+03 -999 1.41648591e-01 3.034965171e-01 -8.16646420e-02
 73 5 752103 2.8066666823134514e+04 4.7422438170065885e+04 1.3863564200076800e-14 2.2646638016048011e+04 2.8550182271246322e+04 9.8076297081980806e+02 -999 1.41701882e-01 2.989988893e-01 -8.16955977e-02
 74 5 752103 2.4338280335391937e+04 4.4347030846905291e+04 1.3525417848629539e-14 1.9855812731774568e+04 2.4686538211255705e+04 9.3458892545214712e+02 -999 1.41755066e-01 2.944616991e-01 -8.17174934e-02
 75 5 752103 2.1922745188966794e+04 4.1882800795889874e+04 1.3259829692949915e-14 1.7877821316576155e+04 2.2333077473962894e+04 9.0649420924549031e+02 -999 1.41806357e-01 2.901630833e-01 -8.17311611e-02
 76 5 752103 1.9364652477134481e+04 3.9466489541670831e+04 1.2985111267313626e-14 1.6192268505423430e+04 2.0053259498578002e+04 8.7625639899471003e+02 -999 1.41828772e-01 2.854948410e-01 -8.17019407e-02
 77 5 752103 1.6900480150471099e+04 3.6744439208726675e+04 1.2651801204050207e-14 1.4575840720138602e+04 1.7932663416499166e+04 9.3530998572410624e+02 -999 1.41897250e-01 2.793225616e-01 -8.16636755e-02
 78 5 752103 1.5487327681871757e+04 3.4031164907642786e+04 1.2254230316619951e-14 1.3457550437662598e+04 1.6941718425807896e+04 1.1536218901671364e+03 -999 1.42079607e-01 2.715179253e-01 -8.16279596e-02
 79 5 752103 1.5301015257827257e+04 3.1971688640899454e+04 1.1916919234848360e-14 1.2998075828456091e+04 1.7149519716213428e+04 1.5695345303228323e+03 -999 1.42429805e-01 2.634631738e-01 -8.16268314e-02
 80 5 752103 1.5607274759319562e+04 3.0499503982486774e+04 1.1649737042253756e-14 1.2816495114370104e+04 1.7770234463322759e+04 2.2744198909224733e+03 -999 1.42979101e-01 2.554116284e-01 -8.16844187e-02
 81 5 752103 1.5233656270421234e+04 2.8058245125722409e+04 1.1317464178683090e-14 1.1808817422407234e+04 1.7649271295207651e+04 4.6768495425169358e+03 -999 1.44280459e-01 2.441022099e-01 -8.19989299e-02
 82 5 752103 1.5542842962857650e+04 2.5933863065893027e+04 1.1117711524837449e-14 1.1158761139952274e+04 1.8042953429663659e+04 1.8342265072873539e+04 -999 1.46546921e-01 2.276296667e-01 -8.28318034e-02
 83 5 752103 1.6157777123924801e+04 2.5431654907260083e+04 1.1110807443098047e-14 1.1037979298722790e+04 1.8535029256103910e+04 7.9782395407014075e+04 -999 1.49567834e-01 2.081111560e-01 -8.45437091e-02
 84 5 752103 1.6691511330436511e+04 2.7964767494529515e+04 1.1017186992903444e-14 1.1273409378351103e+04 1.9030942613244784e+04 2.1057762278289758e+05 -999 1.52635788e-01 1.879168930e-01 -8.72527682e-02
 85 5 752103 1.6601004402815761e+04 3.7859910326473073e+04 1.0547203358359916e-14 1.1504498673934502e+04 2.2551651617873602e+04 2.2061334797479465e+05 -999 1.53594623e-01 1.794064665e-01 -8.87928112e-02
 86 5 752103 1.4583511881466653e+04 2.0778361119461988e+04 1.0054803172901008e-14 1.0559722623855581e+04 1.5903477865076546e+04 7.2163209826013097e+05 -999 1.56055998e-01 1.497272351e-01 -9.50948518e-02
 87 5 752103 1.2857744010374234e+04 2.5457614708614095e+04 9.1915426744447719e-15 1.0457573844731602e+04 1.3962225561287794e+04 6.4104287099914928e+05 -999 1.54983099e-01 1.267894919e-01 -1.01318142e-01
 88 5 752103 1.2557511647342777e+04 4.2185206826155249e+04 8.7188003851722733e-15 8.9643662607561655e+03 1.3928307715386760e+04 8.0544827459123591e+05 -999 1.54677085e-01 1.242577833e-01 -1.02038372e-01
 89 5 752103 1.2459463891115785e+04 4.2814304847704865e+04 8.6487603001184448e-15 8.6909268294369340e+03 1.3507034785516575e+04 5.3699072218612186e+05 -999 1.54625389e-01 1.235159486e-01 -1.02248138e-01
 90 5 752103 1.2213860067315480e+04 2.3686843998169286e+04 1.6306746772645602e-14 8.4852633348242525e+03 1.2721308394339609e+04 5.4398431891081412e+05 -999 1.54506335e-01 1.212285165e-01 -1.02809916e-01
 91 5 752103 1.2075435519218025e+04 2.0764799324844022e+04 1.4316109628468494e-14 7.4428989310092220e+03 1.2286054538805520e+04 1.2091938900205150e+05 -999 1.54348370e-01 1.190005994e-01 -1.03361687e-01
 92 5 752103 1.2048518472750546e+04 2.0449448024737409e+04 1.3404734778694391e-14 7.1797326377313857e+03 1.2143822375559404e+04 1.0669602244732127e+05 -999 1.54159501e-01 1.168837721e-01 -1.03906439e-01
 93 5 752103 1.2083077815278966e+04 2.0359625122610607e+04 1.3212226538501850e-14 7.0791442354530873e+03 1.2105023432683853e+04 7.2590883638550833e+04 -999 1.53938833e-01 1.148883713e-01 -1.04439191e-01
 94 5 752103 1.2068214353789775e+04 2.1330805474600551e+04 1.3468877410342599e-14 7.0058843808554675e+03 1.2068931248638532e+04 6.6417221405297532e+04 -999 1.53684309e-01 1.130106548e-01 -1.04956754e-01
 95 5 752103 1.1952805775252349e+04 3.3192526957791160e+04 1.3898275729076475e-14 6.9867878118262506e+03 1.2749483154446409e+04 6.4684751625536825e+04 -999 1.53395893e-01 1.112385487e-01 -1.05455844e-01
 96 5 752103 1.1650464498439675e+04 1.9506411094016948e+04 1.1966480236999455e-14 6.8527622753415853e+03 1.1587575035669433e+04 6.2763630710036588e+04 -999 1.52973609e-01 1.091526112e-01 -1.06041018e-01
 97 5 752103 1.1249878000691686e+04 1.9040845341344680e+04 1.0532433245327384e-14 6.6532030039347519e+03 1.1173042228289318e+04 6.0817038629868024e+04 -999 1.52508164e-01 1.071902135e-01 -1.06585147e-01
 98 5 752103 1.0860628173158448e+04 1.8653782208698591e+04 9.4866375642269221e-15 6.5946569539601232e+03 1.0789753347816270e+04 5.8753349029280049e+04 -999 1.52008923e-01 1.053376861e-01 -1.07080241e-01
 99 5 752103 1.0545995072378813e+04 1.8266358581626038e+04 8.7109562600030353e-15 6.5819136866833305e+03 1.0471319930843978e+04 5.6883484369449230e+04 -999 1.51488338e-01 1.035847060e-01 -1.07521010e-01
 100 5 752103 1.0303239939007037e+04 1.7866478325141834e+04 8.1533188698358593e-15 6.5508398091157860e+03 1.0206937000841421e+04 5.5270745854644170e+04 -999 1.50963705e-01 1.019273030e-01 -1.07905185e-01
 101 5 752103 1.0003144055889103e+04 1.7172705352237263e+04 7.7768142682986340e-15 6.3938016226095815e+03 9.8602192925067848e+03 5.3249472396432880e+04 -999 1.50200262e-01 9.956099726e-02 -1.08375782e-01
 102 5 752103 9.8086651178195771e+03 1.6464232400252917e+04 7.4845214273041011e-15 6.0767743179271092e+03 9.5947244254199450e+03 5.0187642820971239e+04 -999 1.49589948e-01 9.743324795e-02 -1.08750598e-01
 103 5 752103 9.6587384451308408e+03 1.5781445350559467e+04 7.2119142057654839e-15 5.7081263800295819e+03 9.3728179855734743e+03 4.7272702497902392e+04 -999 1.49184639e-01 9.554291041e-02 -1.09055082e-01
 104 5 752103 9.5302074291680237e+03 1.5114792243388009e+04 7.1025175520356774e-15 5.3944817409010957e+03 9.1824937518463157e+03 4.4284554001183766e+04 -999 1.49004695e-01 9.387044092e-02 -1.09315646e-01
 105 5 752103 9.4376530679514890e+03 1.4497066000691531e+04 7.0345508400302060e-15 5.3264113787295892e+03 9.0537800294968383e+03 4.1187945587662187e+04 -999 1.49046215e-01 9.239506947e-02 -1.09553361e-01
 106 5 752103 9.0864734445261547e+03 1.3610337153971437e+04 6.9546026303212863e-14 5.1890022150470240e+03 8.6861874045668719e+03 3.7861330036775100e+04 -999 1.49385773e-01 9.078716403e-02 -1.09848316e-01
 107 5 752103 8.8614392762202551e+03 1.2853513294520688e+04 1.0803063545560458e-13 5.3590387099488717e+03 8.4423368371212873e+03 3.3929658319440809e+04 -999 1.50027302e-01 8.940940166e-02 -1.10164619e-01
 108 5 752103 8.6851462367123240e+03 1.2230940043332501e+04 1.2744886144388239e-13 5.7473098337481215e+03 8.2549562803503650e+03 3.0104679292916971e+04 -999 1.50946940e-01 8.821590708e-02 -1.10517403e-01
 109 5 752103 8.5763283330550694e+03 1.1779319783646839e+04 1.3495742525375077e-13 6.2696250201362154e+03 8.1362745115287998e+03 2.6934866636692594e+04 -999 1.52145815e-01 8.715493375e-02 -1.10926997e-01
 110 5 752103 8.5881052084461498e+03 1.1551546629861767e+04 1.3532602169957346e-13 6.8654806754935726e+03 8.1307845619163154e+03 2.4203206449856585e+04 -999 1.53641370e-01 8.618090785e-02 -1.11420670e-01
 111 5 752103 8.3021803244133134e+03 1.1364458610146134e+04 1.5871331571250321e-13 7.4100054737597811e+03 7.8765715230711139e+03 2.2612912249528570e+04 -999 1.56002672e-01 8.504011944e-02 -1.12234155e-01
 112 5 752103 8.3412721042737503e+03 1.1492400016295060e+04 1.8210833498448779e-13 7.8318671440111739e+03 7.9538764226241774e+03 2.2850728761253969e+04 -999 1.58880482e-01 8.396585187e-02 -1.13288450e-01
 113 5 752103 8.4666297582796979e+03 1.1799660038665383e+04 1.7355479431695279e-13 8.1461947126164105e+03 8.1346881941309330e+03 2.7123230470820290e+04 -999 1.62275769e-01 8.293293047e-02 -1.14621291e-01
 114 5 752103 8.6877521968596120e+03 1.2320992209486756e+04 1.5664609931528114e-13 8.2949112545542612e+03 8.4182686216247948e+03 3.7630920405174678e+04 -999 1.66183657e-01 8.194588002e-02 -1.16254208e-01
 115 5 752103 9.0763653753031158e+03 1.3248253986107580e+04 1.4511392720097478e-13 8.3911787723221696e+03 9.1168180803437972e+03 5.7633344122698516e+04 -999 1.70604603e-01 8.100764637e-02 -1.18198535e-01
 116 5 752103 9.0008645993559458e+03 1.2691826286740972e+04 1.7174665920428120e-13 8.3264798449406189e+03 8.7784940537987404e+03 8.2082384782659268e+04 -999 1.75143282e-01 8.021691610e-02 -1.20276397e-01
 117 5 752103 9.1418272980833244e+03 1.4177857559067003e+04 1.9011600791805085e-13 8.3618486090874903e+03 9.1054253731030658e+03 1.2739321360640800e+05 -999 1.80080548e-01 7.950599379e-02 -1.22613472e-01
 118 5 752103 9.2951734554984887e+03 2.6545543205551949e+04 1.6877240819539036e-13 8.3259185022892016e+03 1.1260812857856336e+04 2.4841370231648811e+05 -999 1.84297594e-01 7.898580855e-02 -1.24666618e-01
 119 5 752103 9.1464976224022812e+03 3.2510052609271796e+04 1.6202097688013411e-13 8.3780328064953555e+03 1.3856878014995593e+04 2.7340103935451718e+05 -999 1.85442524e-01 7.885777663e-02 -1.25235162e-01
 120 5 752103 9.0607784359313519e+03 3.5454069708073715e+04 1.5795896539428295e-13 8.4852448471981552e+03 1.5946639008438635e+04 2.5909813988539766e+05 -999 1.86181303e-01 7.877693053e-02 -1.25603782e-01
 121 5 752103 8.8834713722764918e+03 1.4084242228234343e+04 1.6405524966991770e-13 7.8166697447900970e+03 8.7316996288432656e+03 1.2998570992251855e+05 -999 1.89109583e-01 7.844757475e-02 -1.27054655e-01
 122 5 752103 8.8136251627213896e+03 1.3142460956342869e+04 1.8199390037490280e-13 7.6960957873655580e+03 8.6726842839473720e+03 1.4033573352898026e+05 -999 1.92110087e-01 7.811838271e-02 -1.28560035e-01
 123 5 752103 8.7241535994130863e+03 1.3080263362939641e+04 1.6366541811417347e-13 7.9409974538982278e+03 8.9273182651703009e+03 1.4510042784581619e+05 -999 1.95153450e-01 7.782401638e-02 -1.30105953e-01
 124 5 752103 8.6516345596453939e+03 1.8963155334679388e+04 1.5057800923134587e-13 7.9118224769375392e+03 1.2414797104545409e+04 1.2736209957902005e+05 -999 1.96405191e-01 7.771233744e-02 -1.30749428e-01
 125 5 752103 8.6229932889095362e+03 2.2015137435932571e+04 1.4705972498939496e-13 7.6643300560293510e+03 1.2922991187139434e+04 1.0328798878467438e+05 -999 1.96814614e-01 7.767569884e-02 -1.30960923e-01
 126 5 752103 8.3780376970044144e+03 1.1607633180906398e+04 1.1750221812568909e-13 7.3456082956381179e+03 8.2187353314374013e+03 1.9420556413381637e+05 -999 2.01614687e-01 7.725652100e-02 -1.33464420e-01
 127 5 752103 8.1583699939554563e+03 1.0775626710951901e+04 1.5182395062150379e-13 7.2876198949301433e+03 7.9740866908898979e+03 1.8956961608623198e+05 -999 2.06333306e-01 7.681086008e-02 -1.35976158e-01
 128 5 752103 8.0371971327386173e+03 1.5297392423099023e+04 1.8226663729885493e-13 7.5250356961085936e+03 9.1213744702629101e+03 1.5791670719167992e+05 -999 2.10880541e-01 7.632990309e-02 -1.38450216e-01
 129 5 752103 8.0167677799436378e+03 2.0203997704115420e+04 1.8467247960847394e-13 7.5841161121050118e+03 1.2639684555700340e+04 1.1496925977259177e+05 -999 2.11605468e-01 7.624188508e-02 -1.38853976e-01
 130 5 752103 8.0068486269389168e+03 2.0434220942913136e+04 1.8572458525891833e-13 7.5284380406174505e+03 1.3285013471509496e+04 8.8152487460760341e+04 -999 2.11972425e-01 7.619606775e-02 -1.39059201e-01
 131 5 752103 7.9966116120041625e+03 9.6997290374366057e+03 1.8975080285621829e-13 7.4156771445190134e+03 7.7566740273048999e+03 9.8992106569609590e+04 -999 2.17172199e-01 7.552059785e-02 -1.41997567e-01
 132 5 752103 8.0896333012299037e+03 9.2400688039266315e+03 2.0379964322375596e-13 7.5095031507588801e+03 7.8449021455227730e+03 9.9439721006306805e+04 -999 2.21997966e-01 7.478773859e-02 -1.44817184e-01
 133 5 752103 8.2842771831151786e+03 1.1020575870060893e+04 2.0761555373269718e-13 7.8228091106260990e+03 8.1610945517958608e+03 9.5407630157319567e+04 -999 2.26389678e-01 7.400862706e-02 -1.47472455e-01
 134 5 752103 8.2793348708600060e+03 1.6753664568126937e+04 2.0508839938289913e-13 7.9570322468752665e+03 9.3908899967325178e+03 8.4369152227278159e+04 -999 2.27429788e-01 7.379395535e-02 -1.48123237e-01
 135 5 752103 8.2719808643344386e+03 1.8585818699370189e+04 2.0415279783519182e-13 7.6373861603931300e+03 1.0903254985297470e+04 7.4154505486764276e+04 -999 2.27843891e-01 7.370456549e-02 -1.48384575e-01
 136 5 752103 8.1289988120743074e+03 8.6050256130542366e+03 2.6275902047953977e-13 7.4560829031102940e+03 7.9457966628863078e+03 7.8481256470573164e+04 -999 2.32432416e-01 7.268759262e-02 -1.51333104e-01
 137 5 752103 7.9477905217001426e+03 8.0180426571538510e+03 3.3334308544383628e-13 7.0731453469207672e+03 7.7898906171308363e+03 8.7671952652468535e+04 -999 2.36485335e-01 7.163870865e-02 -1.54060087e-01
 138 5 752103 7.9113332750577465e+03 9.7620611212184558e+03 3.4667947896959265e-13 6.8129257674549808e+03 8.2610806178648363e+03 9.4703866280677015e+04 -999 2.40076762e-01 7.057755509e-02 -1.56569747e-01
 139 5 752103 7.8066678050460805e+03 1.6559019608591519e+04 3.4916149953079180e-13 6.7542286206550698e+03 9.6438397691975715e+03 8.3231551966658488e+04 -999 2.40942434e-01 7.029582395e-02 -1.57187510e-01
 140 5 752103 7.7508732552352112e+03 2.0587622941713373e+04 3.5036472635806394e-13 6.6804214888806546e+03 9.0001292587468670e+03 7.1530383174469898e+04 -999 2.41292749e-01 7.017976366e-02 -1.57437130e-01
 141 5 752103 7.3504355481683924e+03 6.8260924889572761e+03 4.6502043534684778e-13 6.3927257652501303e+03 7.2221205780779428e+03 8.2944678602920379e+04 -999 2.45224676e-01 6.887023295e-02 -1.60281505e-01