TITLE = "005.01 ALPHA 3.25 GRIDLEVEL 5"

VARIABLES = "ITERATION"  "GRID_LEVEL"  "GRID_SIZE"  "CONTINUITY"  "MOMENTUMX"  "MOMENTUMY"  "MOMENTUMZ"  "ENERGY"  "TURB1"  "TURB2"  "CL_TOT"  "CD_TOT"  "CM_TOT"

DATASETAUXDATA ParticipantID   = "005"
DATASETAUXDATA SubmissionDate  = "10-31-2024"
DATASETAUXDATA Name            = "Jeffrey A. Housman"
DATASETAUXDATA Email           = "jeffrey.a.housman@nasa.gov"
DATASETAUXDATA Institution     = "NASA Ames Research Center"
DATASETAUXDATA SolverName      = "LAVA Curvilinear"
DATASETAUXDATA BasicAlgorithm  = "RANS"
DATASETAUXDATA TurbulenceModel = "SA-neg"
DATASETAUXDATA GridId          = "Multiblock"
DATASETAUXDATA Discretization  = "Finite difference"
DATASETAUXDATA Order           = "2"
DATASETAUXDATA DistanceCalc    = "Exact"
DATASETAUXDATA Notes           = " "

ZONE T = "005.01 - Alpha 3.25 - Grid Level 5"
AUXDATA Tstatic         = "271.0"
AUXDATA Deltat          = "-999"
AUXDATA GridFileName    = "ONERA-OAT15A_230mmChord_780mmSpan_upZ_2024_06_25-Structured_23mm_Level-5.x"
AUXDATA Misc            = " "
 0 5 752103 4.9617471765853796e+05 1.5921761939583987e+06 7.6805201071089989e-14 4.9060554259660497e+05 5.2749657498190366e+05 2.7118899308105758e+06 -999 1.64804485e-02 9.098685142e-01 -1.02972698e-02
 1 5 752103 7.3717077891007229e+05 1.1880511879979065e+06 6.5425899630238324e-14 3.7178025605728530e+05 7.1892016532150947e+05 1.7634333477556217e+06 -999 5.14359636e-02 8.318544651e-01 -2.46111778e-02
 2 5 752103 9.0155522841329162e+05 1.0123780925908401e+06 5.7061452416015633e-14 4.0763810638697754e+05 8.6620984434574796e+05 1.1517447745466218e+06 -999 9.36162050e-02 7.864132911e-01 -4.17475329e-02
 3 5 752103 1.0490509972864459e+06 9.0316294512473128e+05 5.0693996135159903e-14 4.8362332683253341e+05 1.0065359955223307e+06 7.5641576483537850e+05 -999 1.32156008e-01 7.568113713e-01 -5.76820245e-02
 4 5 752103 1.1761734724823083e+06 8.2630974880470254e+05 4.5740721541642770e-14 5.7643517954382149e+05 1.1397450394361897e+06 4.8962067284829332e+05 -999 1.66430417e-01 7.368335703e-01 -7.04149664e-02
 5 5 752103 1.3081362121039291e+06 8.2730139316177473e+05 4.1858328846138918e-14 6.7352830762776942e+05 1.2977534486545310e+06 3.1665410116406495e+05 -999 1.92351111e-01 7.211950780e-01 -7.98983274e-02
 6 5 752103 1.1951672048297897e+06 8.5359752366063907e+05 3.8930654682243722e-14 7.0747636526269419e+05 1.1874797205461124e+06 1.6909800048514782e+05 -999 2.10252874e-01 7.003112767e-01 -8.71611024e-02
 7 5 752103 1.2264903606817678e+06 8.6056074089185370e+05 3.6320304348333851e-14 7.3808680371061154e+05 1.2156777927510778e+06 1.2042012772153833e+05 -999 2.24965355e-01 6.774708511e-01 -9.36122504e-02
 8 5 752103 1.2892696938489869e+06 8.4149227958573820e+05 3.4395550447568328e-14 7.5822033041342185e+05 1.2981955773827399e+06 9.9617561485931787e+04 -999 2.36446302e-01 6.549100792e-01 -9.84247728e-02
 9 5 752103 1.5590097206615042e+06 9.1708437190688518e+05 3.2783330353612852e-14 8.3577138823954575e+05 1.6296091578005131e+06 8.7643911620971252e+04 -999 2.47430588e-01 6.297964193e-01 -1.02658680e-01
 10 5 752103 1.4570507482699312e+06 7.6520105115967919e+05 3.1863971527358602e-14 8.0475619029096141e+05 1.5015275837561477e+06 7.8690818597657184e+04 -999 2.53342126e-01 6.148524043e-01 -1.04875389e-01
 11 5 752103 1.3803234097252386e+06 7.8828163378835481e+05 3.0807630300487993e-14 7.9640901352386235e+05 1.4123701321588724e+06 7.1274461851301021e+04 -999 2.59474312e-01 5.982401327e-01 -1.07228811e-01
 12 5 752103 1.2807065977662057e+06 7.6733457431384851e+05 2.9785945915200819e-14 7.6800074959998520e+05 1.2970140983906002e+06 6.5531715837135940e+04 -999 2.64736735e-01 5.826531783e-01 -1.09163035e-01
 13 5 752103 1.4294172176799083e+06 8.1419805359087372e+05 2.8826388367596632e-14 8.0457680283315526e+05 1.4780889517044188e+06 6.0902186642963898e+04 -999 2.69754391e-01 5.662662292e-01 -1.11012541e-01
 14 5 752103 1.3463699051376183e+06 6.9846680322668236e+05 2.8258446661353754e-14 7.6875571572747407e+05 1.3745216884705047e+06 5.6848142512428036e+04 -999 2.72569919e-01 5.560650354e-01 -1.12117292e-01
 15 5 752103 1.5448205742260586e+06 8.3767519372645137e+05 2.7821046840838243e-14 8.0434414049257932e+05 1.6392715602931394e+06 5.3451066517562685e+04 -999 2.75268919e-01 5.457268558e-01 -1.13268196e-01
 16 5 752103 1.2976567598345294e+06 7.3032361283303099e+05 2.7272616752620739e-14 7.3547657559600659e+05 1.3616146756185230e+06 4.9431234153776692e+04 -999 2.77312758e-01 5.367695035e-01 -1.14168207e-01
 17 5 752103 1.1999962394536475e+06 6.8317999671578908e+05 2.6703442064736230e-14 7.1040720959006832e+05 1.2193592612639589e+06 4.6019806856829229e+04 -999 2.79374945e-01 5.267353530e-01 -1.15035978e-01
 18 5 752103 1.1764323898848144e+06 6.4260724379411188e+05 2.6301273780452828e-14 6.9274847331723536e+05 1.1877683328123707e+06 4.3159719571499038e+04 -999 2.80970007e-01 5.179892952e-01 -1.15631675e-01
 19 5 752103 1.3055399201889776e+06 6.8518322181431786e+05 2.5986820836674269e-14 6.9730289336695883e+05 1.3671078809345935e+06 4.0677058665608289e+04 -999 2.82283413e-01 5.100974721e-01 -1.16049540e-01
 20 5 752103 1.2946802628182964e+06 6.3263993229762884e+05 2.5767580065767811e-14 7.0103735022293578e+05 1.3426707481026915e+06 3.8487149439387016e+04 -999 2.83242286e-01 5.037827908e-01 -1.16320624e-01
 21 5 752103 1.1766922616421373e+06 6.5406769723536936e+05 2.5395319089274601e-14 6.6139305040880421e+05 1.2269149681833943e+06 3.5941646525117489e+04 -999 2.84011797e-01 4.976683699e-01 -1.16523833e-01
 22 5 752103 1.0471097236342480e+06 5.7918089946385555e+05 2.4955483884964583e-14 6.1671203384847578e+05 1.0701817667037575e+06 3.3702981948269728e+04 -999 2.84860075e-01 4.903421580e-01 -1.16742898e-01
 23 5 752103 1.0513138413953052e+06 5.9495609368337516e+05 2.4565550951649417e-14 6.0439569791269372e+05 1.0747185483846241e+06 3.1747107801809027e+04 -999 2.85602846e-01 4.833427744e-01 -1.16936863e-01
 24 5 752103 1.1964772992007609e+06 6.3459629590107000e+05 2.4284786889049624e-14 6.2370085902838118e+05 1.2577068899032054e+06 3.0053815990460847e+04 -999 2.86278606e-01 4.765177692e-01 -1.17122165e-01
 25 5 752103 1.1330899697562982e+06 5.3855025955899886e+05 2.4058449612119584e-14 5.9902650988180598e+05 1.1843380864578504e+06 2.8543070246845426e+04 -999 2.86676638e-01 4.721778631e-01 -1.17238018e-01
 26 5 752103 1.0171836197777295e+06 5.3509290139108850e+05 2.3665984419337270e-14 5.6736204502882436e+05 1.0613748509054156e+06 2.6791233050255316e+04 -999 2.87055844e-01 4.672661006e-01 -1.17347188e-01
 27 5 752103 9.0671625847685756e+05 5.1061425603695033e+05 2.3225891643048553e-14 5.2997103687554121e+05 9.2985805570488854e+05 2.5247708258402257e+04 -999 2.87478061e-01 4.616346778e-01 -1.17471822e-01
 28 5 752103 9.1156385712974204e+05 5.0965197485929489e+05 2.2856837056288976e-14 5.1606027775740065e+05 9.3225476172471419e+05 2.3876373903839460e+04 -999 2.87888009e-01 4.560738647e-01 -1.17594028e-01
 29 5 752103 1.0409856519363701e+06 5.5261573246537813e+05 2.2612673623432421e-14 5.2939375705765130e+05 1.0957430831098165e+06 2.2651044032756876e+04 -999 2.88276712e-01 4.507080327e-01 -1.17707595e-01
 30 5 752103 1.0023982271428746e+06 4.7286371203132696e+05 2.2500527711538986e-14 5.1549586124041199e+05 1.0482740264825416e+06 2.1564715631152645e+04 -999 2.88523590e-01 4.472141720e-01 -1.17777801e-01
 31 5 752103 8.8885447336147621e+05 4.7677774954506621e+05 2.2265440618871803e-14 4.8268623514158302e+05 9.3389564788582956e+05 2.0295342061190742e+04 -999 2.88765935e-01 4.432389246e-01 -1.17841469e-01
 32 5 752103 7.7494244689454988e+05 4.3642681699915847e+05 2.2025652675600503e-14 4.4597234362801828e+05 7.9835190419667284e+05 1.9164961101491092e+04 -999 2.89043053e-01 4.386984215e-01 -1.17914614e-01
 33 5 752103 7.6841150643455330e+05 4.2750844537427090e+05 2.1860594087472278e-14 4.2968193097518646e+05 7.8199950967675087e+05 1.8171754788652957e+04 -999 2.89326928e-01 4.340365863e-01 -1.17989981e-01
 34 5 752103 8.4025655624484434e+05 4.4519448892538977e+05 2.1824210396547166e-14 4.2885591659132566e+05 8.7990725430558750e+05 1.7286166800634102e+04 -999 2.89559336e-01 4.302014742e-01 -1.18052240e-01
 35 5 752103 9.6356737943968654e+05 5.4804613816283038e+05 2.1845296004745025e-14 4.4775357581516640e+05 1.0388707541932481e+06 1.6479037777464859e+04 -999 2.89778362e-01 4.265721070e-01 -1.18111535e-01
 36 5 752103 7.9991715207174968e+05 4.6646288169991149e+05 2.1658930514045422e-14 4.0616226478387369e+05 8.6464240343048493e+05 1.5540455138642881e+04 -999 2.89942988e-01 4.234572942e-01 -1.18153167e-01
 37 5 752103 6.6093508144747932e+05 3.8618864738070639e+05 2.1435365527249003e-14 3.6984583482664538e+05 6.9058430895166472e+05 1.4688200657853835e+04 -999 2.90144758e-01 4.196986412e-01 -1.18205050e-01
 38 5 752103 6.3230140879527398e+05 3.6396516005622986e+05 2.1231733004162357e-14 3.5025227041945100e+05 6.4229252661526483e+05 1.3934571203927340e+04 -999 2.90353472e-01 4.158753838e-01 -1.18259726e-01
 39 5 752103 6.9765765747260407e+05 3.7685879383911891e+05 2.1112997408844858e-14 3.4827725630561402e+05 7.2600953451644571e+05 1.3270537815473826e+04 -999 2.90540262e-01 4.125013446e-01 -1.18309445e-01
 40 5 752103 7.7084823047145852e+05 4.0661802186622156e+05 2.1064469147194115e-14 3.5606539474140661e+05 8.1759639772608632e+05 1.2669739815278746e+04 -999 2.90706163e-01 4.095343223e-01 -1.18354173e-01
 41 5 752103 6.5057155587931711e+05 3.6707713777015102e+05 2.0830579978950295e-14 3.2528596510778170e+05 6.9900527604676492e+05 1.1892774974997348e+04 -999 2.90844468e-01 4.067761400e-01 -1.18389109e-01
 42 5 752103 5.3464974940204201e+05 3.1589081968222524e+05 2.0538485170010255e-14 2.9463159733034641e+05 5.6196080335918034e+05 1.1185698538859688e+04 -999 2.91007968e-01 4.035894840e-01 -1.18431140e-01
 43 5 752103 4.9802240420758666e+05 2.8791473365317134e+05 2.0243000954315017e-14 2.7389162858741643e+05 5.0399656475774827e+05 1.0555127169873225e+04 -999 2.91193514e-01 4.000577546e-01 -1.18479592e-01
 44 5 752103 5.4226089544807095e+05 2.9317669626835932e+05 2.0041801373673872e-14 2.6896587517609599e+05 5.5976013805424306e+05 1.0007743580718054e+04 -999 2.91360113e-01 3.969589295e-01 -1.18523704e-01
 45 5 752103 5.9352348727289983e+05 3.2466350674408820e+05 1.9919989372691545e-14 2.7028920760284294e+05 6.3162600087443274e+05 9.5227233448160587e+03 -999 2.91497801e-01 3.944406706e-01 -1.18560586e-01
 46 5 752103 5.0289907515830686e+05 2.7758805706152832e+05 1.9676140449797903e-14 2.4749843080615596e+05 5.4027083305455360e+05 8.8943964298943338e+03 -999 2.91623880e-01 3.919154165e-01 -1.18592132e-01
 47 5 752103 4.1317108811919857e+05 2.4581317144593297e+05 1.9395115419446277e-14 2.2446124643572353e+05 4.3662701898616098e+05 8.3231006152032660e+03 -999 2.91770439e-01 3.890521635e-01 -1.18629382e-01
 48 5 752103 3.7580382429165777e+05 2.2408020369993933e+05 1.9119816449740179e-14 2.0671465904019226e+05 3.8207493966293964e+05 7.8171186991264394e+03 -999 2.91935023e-01 3.859172711e-01 -1.18671843e-01
 49 5 752103 3.9958554776662838e+05 2.2277475758757989e+05 1.8947750238273719e-14 1.9977493010892664e+05 4.0928165259418107e+05 7.3782033252779847e+03 -999 2.92089704e-01 3.830414910e-01 -1.18712368e-01
 50 5 752103 4.3598059707983310e+05 2.3758150293584744e+05 1.8875042081985446e-14 1.9881355210879186e+05 4.5772187744472432e+05 6.9885358878036832e+03 -999 2.92225599e-01 3.805605084e-01 -1.18748582e-01
 51 5 752103 3.7357782286963233e+05 2.0954370611770017e+05 1.8668826872442969e-14 1.8216719327797473e+05 3.9893618441841309e+05 6.4783067959929322e+03 -999 2.92342285e-01 3.782799522e-01 -1.18777949e-01
 52 5 752103 3.0449714082148165e+05 1.8410048023041090e+05 1.8397002897711012e-14 1.6373931572881760e+05 3.2358408637527371e+05 6.0212066233883006e+03 -999 2.92485284e-01 3.755414853e-01 -1.18814634e-01
 53 5 752103 2.6898790638489113e+05 1.6637983952394358e+05 1.8119029360550168e-14 1.4818208989050714e+05 2.7610594562672364e+05 5.6205858498836833e+03 -999 2.92647472e-01 3.725040996e-01 -1.18857158e-01
 54 5 752103 2.7654915978352923e+05 1.6263206171685815e+05 1.7923598555259902e-14 1.3995474471130906e+05 2.8288668354215770e+05 5.2680550821965890e+03 -999 2.92803582e-01 3.696420861e-01 -1.18899189e-01
 55 5 752103 2.9501179001937335e+05 1.6953009646964018e+05 1.7824285936723076e-14 1.3622990882897511e+05 3.0841446600975498e+05 4.9352767994407923e+03 -999 2.92944657e-01 3.670953649e-01 -1.18938439e-01
 56 5 752103 2.5423573498117353e+05 1.5160255104234378e+05 1.7635382987329511e-14 1.2525430008294666e+05 2.7060250880889426e+05 4.5305174262448681e+03 -999 2.93059916e-01 3.648675847e-01 -1.18969817e-01
 57 5 752103 2.0764043161912294e+05 1.3467587984028942e+05 1.7399114456449330e-14 1.1265005547466257e+05 2.2176435044714157e+05 4.1708164843872619e+03 -999 2.93201367e-01 3.621830431e-01 -1.19009135e-01
 58 5 752103 1.7888569961715181e+05 1.2138378338873040e+05 1.7144293228327585e-14 1.0090078514868609e+05 1.8633026599332795e+05 3.8493247959242240e+03 -999 2.93366336e-01 3.591152514e-01 -1.19056224e-01
 59 5 752103 1.7631203520100581e+05 1.1600581112325640e+05 1.6960910317296341e-14 9.3421349676953876e+04 1.8166507050629510e+05 3.5574259617991979e+03 -999 2.93528333e-01 3.561615391e-01 -1.19104245e-01
 60 5 752103 1.7981415010624056e+05 1.1497482475428871e+05 1.6871784071652191e-14 8.8772668492373909e+04 1.8710764604182958e+05 3.3266362111768285e+03 -999 2.93674325e-01 3.535352584e-01 -1.19149754e-01
 61 5 752103 1.5589555288718929e+05 1.0583585669945824e+05 1.6684933203785844e-14 8.2123204783716690e+04 1.6494007096537945e+05 3.0065847525462345e+03 -999 2.93792547e-01 3.512680844e-01 -1.19185995e-01
 62 5 752103 1.2795325516935890e+05 9.6664758542904980e+04 1.6448411782753479e-14 7.4388680351195027e+04 1.3632685609778867e+05 2.7322068482674358e+03 -999 2.93936924e-01 3.485430915e-01 -1.19230990e-01
 63 5 752103 1.0751659394518852e+05 8.8417048479634497e+04 1.6178279753053288e-14 6.6575798242735938e+04 1.1270276537223457e+05 2.4932601829127370e+03 -999 2.94109603e-01 3.453393604e-01 -1.19286152e-01
 64 5 752103 1.0071649127601199e+05 8.3287100316141819e+04 1.5959606791639283e-14 6.0849537306442697e+04 1.0426039812334777e+05 2.2920886410706430e+03 -999 2.94281241e-01 3.422032795e-01 -1.19343379e-01
 65 5 752103 9.7549494160194285e+04 7.9895703300111578e+04 1.5803683502982228e-14 5.6713597495579292e+04 1.0099546383553155e+05 2.1222370365643255e+03 -999 2.94437871e-01 3.393624837e-01 -1.19399003e-01
 66 5 752103 8.5266982770486531e+04 7.5237804749487841e+04 1.5612850877018725e-14 5.2358521205413206e+04 8.9374917479700714e+04 1.8940183828756867e+03 -999 2.94557983e-01 3.369669771e-01 -1.19438709e-01
 67 5 752103 7.0575841039598381e+04 7.0187001054342050e+04 1.5377261684871324e-14 4.7207377197299429e+04 7.4322296292725179e+04 1.7052382110301451e+03 -999 2.94705289e-01 3.340410749e-01 -1.19487720e-01
 68 5 752103 5.8302990354356421e+04 6.5069864102278829e+04 1.5083693521836526e-14 4.1628427470181450e+04 6.0598923352355450e+04 1.5480476217270200e+03 -999 2.94882764e-01 3.305214304e-01 -1.19547787e-01
 69 5 752103 5.1925726708468967e+04 6.1045093467624902e+04 1.4817984239180762e-14 3.7036762382760018e+04 5.3289558054394030e+04 1.4203460984954925e+03 -999 2.95057768e-01 3.270289392e-01 -1.19609664e-01
 70 5 752103 4.7660923790006913e+04 5.7862249908808692e+04 1.4613868433327689e-14 3.3468097601290930e+04 4.8611760845886274e+04 1.3157219652242907e+03 -999 2.95215279e-01 3.238260138e-01 -1.19669737e-01
 71 5 752103 4.1796566556982485e+04 5.4819234370268772e+04 1.7579813129190875e-14 3.0469381380003913e+04 4.2851883937278464e+04 1.1817320687822260e+03 -999 2.95322407e-01 3.209399952e-01 -1.19699673e-01
 72 5 752103 3.4944792635351900e+04 5.1370274692559396e+04 2.4959913516256847e-14 2.7022373297706115e+04 3.5779793204261696e+04 1.0691261327159636e+03 -999 2.95448658e-01 3.173335144e-01 -1.19732118e-01
 73 5 752103 2.8902526735629079e+04 4.7694353551368258e+04 3.3498430122556441e-14 2.3377182282793532e+04 2.9289899069477829e+04 9.9553459448876868e+02 -999 2.95591517e-01 3.128989100e-01 -1.19764873e-01
 74 5 752103 2.5159519901155443e+04 4.4602600754175284e+04 3.9812961337490832e-14 2.0468949729359054e+04 2.5376946665274489e+04 9.4653969893726219e+02 -999 2.95718679e-01 3.084345283e-01 -1.19790524e-01
 75 5 752103 2.2681974962846281e+04 4.2114195262597845e+04 4.3838098333539126e-14 1.8346522242758598e+04 2.2935767756893765e+04 9.1507724039972993e+02 -999 2.95821866e-01 3.042095167e-01 -1.19809692e-01
 76 5 752103 2.0036138755671149e+04 3.9704271402191800e+04 4.1426327084972410e-14 1.6599149885055045e+04 2.0560521204524626e+04 8.7805112045603369e+02 -999 2.95851080e-01 2.996449227e-01 -1.19749416e-01
 77 5 752103 1.7442072443668676e+04 3.6996523216762434e+04 3.8659752797421475e-14 1.4911246435608702e+04 1.8301884750378329e+04 9.2464303995779437e+02 -999 2.95895014e-01 2.936200100e-01 -1.19658487e-01
 78 5 752103 1.5906112549233634e+04 3.4303092101826056e+04 3.5715159551973263e-14 1.3740269886335771e+04 1.7187031225200994e+04 1.0989323504514334e+03 -999 2.95979561e-01 2.860067033e-01 -1.19541168e-01
 79 5 752103 1.5660086022436340e+04 3.2252786618030441e+04 3.3223113478394482e-14 1.3317185183501188e+04 1.7348108707597490e+04 1.4380743309347188e+03 -999 2.96128028e-01 2.781579982e-01 -1.19441999e-01
 80 5 752103 1.5928678682308921e+04 3.0756329871140959e+04 3.1921153062036815e-14 1.3226229104780878e+04 1.7952672068875559e+04 2.0090166433659640e+03 -999 2.96358397e-01 2.703154652e-01 -1.19391542e-01
 81 5 752103 1.5316561586784474e+04 2.8249718405115244e+04 3.0760827012874837e-14 1.2140983326414555e+04 1.7614710510212110e+04 3.3556317052387744e+03 -999 2.96885754e-01 2.592067729e-01 -1.19432521e-01
 82 5 752103 1.5426580747020656e+04 2.6066605901159241e+04 2.9544083918649656e-14 1.1508429362440471e+04 1.7828806555154362e+04 1.1937346625026803e+04 -999 2.97846808e-01 2.432618595e-01 -1.19746049e-01
 83 5 752103 1.6051675641375321e+04 2.5850078840733269e+04 2.8609367516146147e-14 1.1557651708432655e+04 1.8356649128446021e+04 5.7736299741066912e+04 -999 2.99048497e-01 2.249199276e-01 -1.20593683e-01
 84 5 752103 1.6622195848618325e+04 2.7695036012520974e+04 2.7634632698138538e-14 1.1843335681639792e+04 1.8761110678250774e+04 1.5775832401605518e+05 -999 2.99980472e-01 2.060480980e-01 -1.22058733e-01
 85 5 752103 1.7502400410950391e+04 4.5626683135037529e+04 2.6270092980558921e-14 1.2879749993314694e+04 2.3034928442795212e+04 2.7523540385283408e+05 -999 3.00015707e-01 1.901024925e-01 -1.23731877e-01
 86 5 752103 1.4940938499237638e+04 2.1138348326548072e+04 2.2064876527013417e-14 1.1398631477748326e+04 1.6324778512239638e+04 4.6529951432386390e+05 -999 2.98334235e-01 1.610307693e-01 -1.27222704e-01
 87 5 752103 1.3189571752852145e+04 2.4540651999766993e+04 1.6928359530440059e-14 1.2463976792568925e+04 1.4798472475285007e+04 5.4959847909485165e+05 -999 2.93864334e-01 1.379138341e-01 -1.29708939e-01
 88 5 752103 1.2849959236541872e+04 4.4267668444237723e+04 1.5804586008609266e-14 9.7218522957156329e+03 1.8916628174727699e+04 4.6217236555704707e+05 -999 2.93020567e-01 1.350205275e-01 -1.29829964e-01
 89 5 752103 1.2736055743763181e+04 4.6712615384395744e+04 1.5546278394669034e-14 9.5814977998882496e+03 1.8747749093195816e+04 5.4965245368123206e+05 -999 2.92794822e-01 1.341791555e-01 -1.29851801e-01
 90 5 752103 1.2655072730629565e+04 4.8168219081761192e+04 1.5354773191832129e-14 9.3682152164751933e+03 1.8638044307848075e+04 4.2541838011150417e+05 -999 2.92627344e-01 1.335540663e-01 -1.29866134e-01
 91 5 752103 1.2403266166113379e+04 2.1984726438937854e+04 1.3817386106752629e-14 8.6732586036645298e+03 1.2923560609409369e+04 9.2864172184914307e+04 -999 2.92165008e-01 1.312520799e-01 -1.30035298e-01
 92 5 752103 1.2324474370726079e+04 2.1640949115642063e+04 1.2620152940538046e-14 8.1788647677235067e+03 1.2528255645064046e+04 6.5862215095795123e+04 -999 2.91670433e-01 1.289792351e-01 -1.30188274e-01
 93 5 752103 1.2418700536501106e+04 2.1656108969088295e+04 1.1610870726169212e-14 8.0925839786186643e+03 1.2472372117920650e+04 6.2371567276680624e+04 -999 2.91158328e-01 1.268007412e-01 -1.30327987e-01
 94 5 752103 1.2579026611204159e+04 2.1673854032441966e+04 1.0791375850249543e-14 8.1419369876232286e+03 1.2542353584790277e+04 6.2832245228928681e+04 -999 2.90625306e-01 1.247407551e-01 -1.30452437e-01
 95 5 752103 1.2673523568926188e+04 2.1630258152219514e+04 1.0133127397626520e-14 8.2130868993142631e+03 1.2588892514319672e+04 6.3230346308245906e+04 -999 2.90067572e-01 1.228027118e-01 -1.30558512e-01
 96 5 752103 1.2285060905507435e+04 2.1399390550526652e+04 3.4835778546394354e-14 7.9758768122333131e+03 1.2158435519284491e+04 6.3420816543156252e+04 -999 2.88940013e-01 1.195481201e-01 -1.30672658e-01
 97 5 752103 1.1606378943532458e+04 2.0871581705172091e+04 4.5541283737940360e-14 7.6270470075745880e+03 1.1499319334799731e+04 6.1889787587980245e+04 -999 2.87733104e-01 1.165616910e-01 -1.30698759e-01
 98 5 752103 1.0990408987490440e+04 2.0259488802993270e+04 4.5709336195592989e-14 7.4620760927413266e+03 1.0907319899858147e+04 5.9857177848182328e+04 -999 2.86469442e-01 1.138021721e-01 -1.30626578e-01
 99 5 752103 1.0540553332974636e+04 1.9593043042784160e+04 3.9959627207671141e-14 7.4238156261779177e+03 1.0449697389041035e+04 5.7068650246860045e+04 -999 2.85241599e-01 1.113492816e-01 -1.30463085e-01
 100 5 752103 1.0347203316322240e+04 1.8926026343520851e+04 2.8751860612771024e-14 7.3498456982315283e+03 1.0190922551675860e+04 5.4201713398871907e+04 -999 2.83998409e-01 1.089730623e-01 -1.30207406e-01
 101 5 752103 9.9806684309962166e+03 1.8029104807866217e+04 2.0352121939986715e-14 7.1070467708684355e+03 9.7849860392216615e+03 4.9699205522873315e+04 -999 2.83020089e-01 1.070564039e-01 -1.29906476e-01
 102 5 752103 9.7458974230351469e+03 1.6891127726961808e+04 1.5184670922207731e-14 6.7803978949082621e+03 9.4556136555853700e+03 4.6297269954257259e+04 -999 2.81854736e-01 1.045481748e-01 -1.29437819e-01
 103 5 752103 9.5810878206553280e+03 1.6069926841050143e+04 1.3354664762086651e-14 6.4891572619761273e+03 9.2245336955519160e+03 4.0745290878643980e+04 -999 2.81216589e-01 1.027682992e-01 -1.29037093e-01
 104 5 752103 9.4821222043323014e+03 1.5424634385501058e+04 1.2639344156780260e-14 6.3375090528546225e+03 9.0918098010536687e+03 3.7064454962422526e+04 -999 2.80904405e-01 1.014075236e-01 -1.28702769e-01
 105 5 752103 9.4272204447102195e+03 1.4794193711954960e+04 1.2451605866272289e-14 6.2541497185533372e+03 9.0047920576585002e+03 3.4058492666653496e+04 -999 2.80778001e-01 1.000568776e-01 -1.28358665e-01
 106 5 752103 8.9625265085309748e+03 1.3730426901294586e+04 3.6994302281797708e-13 6.1459430460717194e+03 8.5421776405728615e+03 3.1174465838422988e+04 -999 2.81071473e-01 9.794351021e-02 -1.27832230e-01
 107 5 752103 8.7520402347568852e+03 1.2924227906091122e+04 3.9273340047859914e-13 6.3430730032315560e+03 8.3179498171149371e+03 2.6590900867086773e+04 -999 2.82051121e-01 9.611872646e-02 -1.27440272e-01
 108 5 752103 8.6661116454735984e+03 1.2386026237821587e+04 2.3205519446722580e-13 6.7481189037309523e+03 8.2227329528697446e+03 2.3026283217628436e+04 -999 2.83693778e-01 9.453080624e-02 -1.27229987e-01
 109 5 752103 8.8248341092081555e+03 1.2182634762164536e+04 1.9655242278118852e-13 7.2568004184589081e+03 8.3504290888314790e+03 2.0746047676800332e+04 -999 2.85980016e-01 9.312239769e-02 -1.27241001e-01
 110 5 752103 9.2752206703192533e+03 1.2336449106445749e+04 4.1957209642039125e-13 7.7849297108463152e+03 8.7356948141259709e+03 1.9811174825805738e+04 -999 2.88643661e-01 9.195345689e-02 -1.27478892e-01
 111 5 752103 8.5208485257097782e+03 1.2096840113232605e+04 2.2303776274912421e-12 8.3328497771709062e+03 8.1103663563700056e+03 2.0960859122913109e+04 -999 2.93128227e-01 9.050419175e-02 -1.28184556e-01
 112 5 752103 8.4940628472114713e+03 1.2265000653521267e+04 3.0038406689010344e-12 8.8011367252798318e+03 8.1514477164288301e+03 2.6558405618167930e+04 -999 2.98456174e-01 8.919705775e-02 -1.29289884e-01
 113 5 752103 8.6008506986324683e+03 1.2702127663421414e+04 3.2303608721272353e-12 8.9292139056764518e+03 8.3268023612772067e+03 4.1315656610722042e+04 -999 3.04593511e-01 8.799279636e-02 -1.30793335e-01
 114 5 752103 9.0136808677680947e+03 1.3624894711167761e+04 3.3055222833884979e-12 8.8865483192416959e+03 8.9768304904650031e+03 6.2535916359319090e+04 -999 3.11495318e-01 8.687614966e-02 -1.32688445e-01
 115 5 752103 1.0178369908092591e+04 1.6517388302558342e+04 3.5911732604840904e-12 9.2343098855313747e+03 1.2830549083814567e+04 1.0893658364301214e+05 -999 3.19122287e-01 8.584653714e-02 -1.34959932e-01
 116 5 752103 9.6322157469680951e+03 1.4241314966792836e+04 2.0262928675369948e-11 9.0288244427785412e+03 9.4772711968752155e+03 1.6782902207648900e+05 -999 3.26728494e-01 8.501851981e-02 -1.37359824e-01
 117 5 752103 9.7733022835639913e+03 1.5911229743811287e+04 1.2821401884805433e-10 8.8246880333884383e+03 1.0000570502854589e+04 2.7763915477606584e+05 -999 3.34678108e-01 8.430602420e-02 -1.40000822e-01
 118 5 752103 9.5428910879947471e+03 2.8134604805924177e+04 9.1810747602903054e-10 8.9610151547719743e+03 1.2778438810717429e+04 4.3719739987444080e+05 -999 3.38799057e-01 8.398196195e-02 -1.41438219e-01
 119 5 752103 9.3941384285298427e+03 3.3663881727588785e+04 1.5723447346851352e-09 8.7280445529825556e+03 1.4689259914097524e+04 3.4421161393413699e+05 -999 3.39868205e-01 8.390024525e-02 -1.41820003e-01
 120 5 752103 9.3366098124299988e+03 2.9814753045158930e+04 1.2215486902326023e-09 8.5565348743573959e+03 1.2992273960478504e+04 3.8015440015258797e+05 -999 3.40412712e-01 8.385934005e-02 -1.42015501e-01
 121 5 752103 9.1763861025539773e+03 1.3632408893601072e+04 3.4515484760494803e-11 8.3222324078392576e+03 9.0777618198095624e+03 2.5196046458755841e+05 -999 3.45495448e-01 8.346650696e-02 -1.43816309e-01
 122 5 752103 9.0347885823316938e+03 1.2555795662426295e+04 3.0252247921202352e-11 8.2268562175104980e+03 8.9332603812084981e+03 2.2465983469535233e+05 -999 3.50545542e-01 8.312690382e-02 -1.45657973e-01
 123 5 752103 8.8645847255660428e+03 1.4150379634775452e+04 2.6163908836572729e-10 8.8331554108170058e+03 1.0055337912553938e+04 2.2221833456542800e+05 -999 3.55458525e-01 8.279881331e-02 -1.47500588e-01
 124 5 752103 8.7982809015972325e+03 1.7356357993800604e+04 5.4090069529520645e-10 8.4178772056529724e+03 1.2778268329256214e+04 1.7726170682367534e+05 -999 3.56445516e-01 8.272655792e-02 -1.47880889e-01
 125 5 752103 8.7624487412998333e+03 1.7207666849294019e+04 6.3752673599160510e-10 8.2817275218341492e+03 1.2531919925284687e+04 1.3848822642171726e+05 -999 3.56946861e-01 8.268896293e-02 -1.48075064e-01
 126 5 752103 8.5094078458272270e+03 1.0815988231067244e+04 1.3257360141539657e-11 8.2662761490217199e+03 8.3509234341338215e+03 1.7927512074208242e+05 -999 3.63307714e-01 8.219075414e-02 -1.50567787e-01
 127 5 752103 8.3383013732505642e+03 1.0256663825890468e+04 7.4417191823353313e-12 8.2879290693414969e+03 8.1420585546715602e+03 1.7196049329002277e+05 -999 3.69284472e-01 8.164094545e-02 -1.52982580e-01
 128 5 752103 8.3107420838041216e+03 1.4405704443237159e+04 8.4313793155413844e-12 9.5921823033251003e+03 8.8469905776865253e+03 1.6673604215109031e+05 -999 3.74857249e-01 8.102459555e-02 -1.55283537e-01
 129 5 752103 8.2900320395928065e+03 1.9441033831962028e+04 8.5120223790367287e-12 9.1611068739635975e+03 1.2027230527609137e+04 1.3355774315714702e+05 -999 3.75728500e-01 8.091073631e-02 -1.55647614e-01
 130 5 752103 8.2795493378304545e+03 2.1276312056800591e+04 8.6375190043167757e-12 8.3416083544242883e+03 1.4214071813432458e+04 1.0542530615906275e+05 -999 3.76169425e-01 8.085135212e-02 -1.55831970e-01
 131 5 752103 8.3084602301657887e+03 9.3775870178063524e+03 6.0758870838474509e-12 8.3719042475193946e+03 8.1326502802335954e+03 8.6645187075514114e+04 -999 3.80948836e-01 8.021019437e-02 -1.57832961e-01
 132 5 752103 8.2887689413020016e+03 9.0300285301776075e+03 5.9838993695003576e-12 8.2341166074145294e+03 8.1136744262868860e+03 7.9865419113312688e+04 -999 3.85481364e-01 7.953228916e-02 -1.59739149e-01
 133 5 752103 8.2330217853747326e+03 9.6822435703129686e+03 5.5804765756102417e-12 8.0763149592671534e+03 8.1692356784446429e+03 7.7536965878779432e+04 -999 3.89760130e-01 7.882658762e-02 -1.61537274e-01
 134 5 752103 8.1617887990242034e+03 1.7520399207777111e+04 5.3461175384569127e-12 8.1419598091068565e+03 1.0935145180113055e+04 7.4646910868535662e+04 -999 3.91425336e-01 7.852880023e-02 -1.62235520e-01
 135 5 752103 8.1388113189844644e+03 1.8148549808789703e+04 5.2267281407551662e-12 8.0528251597570234e+03 1.2171669900504759e+04 7.1657265610255927e+04 -999 3.91854171e-01 7.844981383e-02 -1.62415237e-01
 136 5 752103 7.9398017842567087e+03 8.1670328797828270e+03 7.3831615116974606e-12 7.7490508958550827e+03 7.8100129962777355e+03 7.2683142845856855e+04 -999 3.96751167e-01 7.755266950e-02 -1.64474833e-01
 137 5 752103 7.7037358495601211e+03 7.6225302411662042e+03 7.5137767031032917e-12 7.4168223586500153e+03 7.5702430466977548e+03 7.3916250215975087e+04 -999 4.01521827e-01 7.665960908e-02 -1.66489354e-01
 138 5 752103 7.5326700553071760e+03 9.0354204266284269e+03 7.2435666000589040e-12 7.2786746121784563e+03 7.5450812587936252e+03 7.4756393920596282e+04 -999 4.06212986e-01 7.578151019e-02 -1.68481765e-01
 139 5 752103 7.4522632508688621e+03 1.3830459236308552e+04 6.8898120926099083e-12 7.2085649786056119e+03 8.3381604125630311e+03 7.3049738843502200e+04 -999 4.07447538e-01 7.555776480e-02 -1.69008703e-01
 140 5 752103 7.4058283263976064e+03 1.7334101527653267e+04 6.6151764289724166e-12 7.0957096021890839e+03 9.2747558408995483e+03 7.0651175778953431e+04 -999 4.08083289e-01 7.544406592e-02 -1.69280087e-01
 141 5 752103 7.1737495349509445e+03 6.5443133275481687e+03 9.2555371779853986e-12 6.8802843663024478e+03 7.0650056186868214e+03 7.3655542619918924e+04 -999 4.14194290e-01 7.441297728e-02 -1.71898425e-01