TITLE = "005.01 ALPHA 3.60 GRIDLEVEL 3"

VARIABLES = "ITERATION"  "GRID_LEVEL"  "GRID_SIZE"  "CONTINUITY"  "MOMENTUMX"  "MOMENTUMY"  "MOMENTUMZ"  "ENERGY"  "TURB1"  "TURB2"  "CL_TOT"  "CD_TOT"  "CM_TOT"

DATASETAUXDATA ParticipantID   = "005"
DATASETAUXDATA SubmissionDate  = "10-31-2024"
DATASETAUXDATA Name            = "Jeffrey A. Housman"
DATASETAUXDATA Email           = "jeffrey.a.housman@nasa.gov"
DATASETAUXDATA Institution     = "NASA Ames Research Center"
DATASETAUXDATA SolverName      = "LAVA Curvilinear"
DATASETAUXDATA BasicAlgorithm  = "RANS"
DATASETAUXDATA TurbulenceModel = "SA-neg"
DATASETAUXDATA GridId          = "Multiblock"
DATASETAUXDATA Discretization  = "Finite difference"
DATASETAUXDATA Order           = "2"
DATASETAUXDATA DistanceCalc    = "Exact"
DATASETAUXDATA Notes           = " "

ZONE T = "005.01 - Alpha 3.60 - Grid Level 3"
AUXDATA Tstatic         = "271.0"
AUXDATA Deltat          = "-999"
AUXDATA GridFileName    = "ONERA-OAT15A_230mmChord_780mmSpan_upZ_2024_06_25-Structured_23mm_Level-3.x"
AUXDATA Misc            = " "
 0 3 234820 2.7258050008786470e+05 6.5297138506158011e+05 4.4403425633475490e-14 2.5215515096573727e+05 2.8035876634966955e+05 9.8415140101072751e+05 -999 1.20452829e-02 6.042073896e-01 -8.01293123e-03
 1 3 234820 3.8303904853342328e+05 5.1068072309688845e+05 3.9162580436160907e-14 2.0277007251281408e+05 3.7208160541449836e+05 6.3845965653739544e+05 -999 5.42521674e-02 5.789380732e-01 -2.48604071e-02
 2 3 234820 4.6243080976091261e+05 4.5007771733908285e+05 3.5238250283783424e-14 2.2502400133657421e+05 4.4325557502328092e+05 4.1476130936113704e+05 -999 1.01891602e-01 5.707142851e-01 -4.33516770e-02
 3 3 234820 5.4156466107736540e+05 4.1081425006838964e+05 3.2205036127422657e-14 2.6316863986534259e+05 5.1805191382873955e+05 2.6895934583893430e+05 -999 1.43624809e-01 5.696081333e-01 -6.03100261e-02
 4 3 234820 6.1783321670223807e+05 3.7935940647205408e+05 2.9825023795350382e-14 3.0913072800984239e+05 5.9594163160148519e+05 1.7150602285000996e+05 -999 1.79875094e-01 5.728932576e-01 -7.36187286e-02
 5 3 234820 6.9238229830206872e+05 3.8223262676610512e+05 2.7972847273675801e-14 3.5964652943397808e+05 6.7902568718766037e+05 9.3265801198892441e+04 -999 2.08271746e-01 5.774014778e-01 -8.35053266e-02
 6 3 234820 6.3833121767664596e+05 4.2585518569697684e+05 2.6580909739388768e-14 3.8185078641790629e+05 6.2831923760164238e+05 6.6464856020465624e+04 -999 2.27850250e-01 5.751039080e-01 -9.09549793e-02
 7 3 234820 6.5298237696384976e+05 4.4591282354644162e+05 2.5314642161522740e-14 3.9746129249836178e+05 6.3858385288728867e+05 5.3354467600771299e+04 -999 2.43484096e-01 5.686499443e-01 -9.74403590e-02
 8 3 234820 7.0911230186615547e+05 4.4571267625750299e+05 2.4434328642362316e-14 4.0445612720581208e+05 7.1206085141670390e+05 4.5660435767478601e+04 -999 2.55369123e-01 5.582651904e-01 -1.02316453e-01
 9 3 234820 8.2461715937292436e+05 4.6439961417757341e+05 2.3810172216791323e-14 4.3579343455344636e+05 8.4606032653230603e+05 4.0522065802396144e+04 -999 2.67358961e-01 5.443032224e-01 -1.06763212e-01
 10 3 234820 8.1035918953461829e+05 4.2441031162830128e+05 2.3427255926639135e-14 4.2040861925054784e+05 8.3955145379078225e+05 3.6435993261678203e+04 -999 2.74383733e-01 5.353511625e-01 -1.09221779e-01
 11 3 234820 7.1502253908130049e+05 3.8978266495573451e+05 2.2923086913509232e-14 4.0385127140161692e+05 7.2543645152325637e+05 3.2986480573507542e+04 -999 2.83106752e-01 5.235930111e-01 -1.12394881e-01
 12 3 234820 6.7330210209096631e+05 4.0350858567725623e+05 2.2493227215803774e-14 3.8907311483676260e+05 6.7955339222120435e+05 3.0112256487736682e+04 -999 2.89535661e-01 5.144291171e-01 -1.14693384e-01
 13 3 234820 7.0812397365257703e+05 3.7957840017768566e+05 2.2122541670000205e-14 3.9080817381810572e+05 7.1799284582057281e+05 2.7733407559788189e+04 -999 2.95602576e-01 5.050487393e-01 -1.16849964e-01
 14 3 234820 6.9484858740810701e+05 3.6397850312240253e+05 2.1835936289195857e-14 3.7133582223102258e+05 7.1494614095213625e+05 2.5755695587295846e+04 -999 2.99002599e-01 4.989605473e-01 -1.18104867e-01
 15 3 234820 7.3872651711387408e+05 3.9707773652325990e+05 2.1584847673851333e-14 3.8586319018789852e+05 7.6600466718632670e+05 2.4100469924821366e+04 -999 3.02388316e-01 4.922512071e-01 -1.19439820e-01
 16 3 234820 6.6130766431179096e+05 3.8622746313203254e+05 2.1322074298661489e-14 3.5797907209455251e+05 6.8954138959458098e+05 2.2161828895090970e+04 -999 3.04634817e-01 4.869517013e-01 -1.20397467e-01
 17 3 234820 5.7210768879059714e+05 3.1749307026055735e+05 2.1015467559813788e-14 3.2636743978155224e+05 5.8301809634263732e+05 2.0507946296128408e+04 -999 3.07171495e-01 4.804215002e-01 -1.21488134e-01
 18 3 234820 5.6860819208542595e+05 3.2739134976551484e+05 2.0753869725035647e-14 3.1724538521347125e+05 5.7890510728178022e+05 1.9119179015368540e+04 -999 3.09362370e-01 4.740501477e-01 -1.22402015e-01
 19 3 234820 5.8501642218721507e+05 2.9783061739158165e+05 2.0561606903746045e-14 3.1320669729466719e+05 5.9624707992373640e+05 1.7897169464619867e+04 -999 3.11121367e-01 4.682566997e-01 -1.23082713e-01
 20 3 234820 6.0258152092221787e+05 3.0177292381297436e+05 2.0446347910723316e-14 3.0316964036518947e+05 6.2971421022988833e+05 1.6807066203150000e+04 -999 3.12320129e-01 4.638190479e-01 -1.23503951e-01
 21 3 234820 5.0881201989752398e+05 2.7135577930002805e+05 2.0243187162193697e-14 2.7965404696849670e+05 5.2902921354459692e+05 1.5554936627924473e+04 -999 3.13522705e-01 4.585140375e-01 -1.23888578e-01
 22 3 234820 4.5897192156756372e+05 2.6639198331367603e+05 2.0041545499838702e-14 2.6306289726690395e+05 4.6786516397815180e+05 1.4476519826089858e+04 -999 3.14644558e-01 4.531886636e-01 -1.24222934e-01
 23 3 234820 4.6550942749410693e+05 2.5195797393926274e+05 1.9848160104114770e-14 2.5427692266354809e+05 4.7138602096033795e+05 1.3532491078866364e+04 -999 3.15797190e-01 4.473136556e-01 -1.24549931e-01
 24 3 234820 4.6267381211117544e+05 2.4344775657910266e+05 1.9715144721110104e-14 2.4435670858845048e+05 4.7776247149708169e+05 1.2726085060455722e+04 -999 3.16548939e-01 4.431006396e-01 -1.24756864e-01
 25 3 234820 5.3971070792624680e+05 3.0117733025634248e+05 1.9584135007902150e-14 2.5756160011513141e+05 5.7344528082363063e+05 1.2010515211443677e+04 -999 3.17339033e-01 4.383393387e-01 -1.24976288e-01
 26 3 234820 4.4058035774591519e+05 2.6706855278259912e+05 1.9360912088385843e-14 2.2877243172447608e+05 4.7127858464232559e+05 1.1168613539548960e+04 -999 3.17878652e-01 4.342842081e-01 -1.25123240e-01
 27 3 234820 3.6816507450619317e+05 2.1800222620434815e+05 1.9128014352410076e-14 2.0614600871109578e+05 3.8160299957158562e+05 1.0414601435463293e+04 -999 3.18429161e-01 4.299169134e-01 -1.25277705e-01
 28 3 234820 3.5421687722854840e+05 2.0418384103932776e+05 1.8909683162267074e-14 1.9397688876457009e+05 3.5848893470974022e+05 9.7442398723409515e+03 -999 3.18978487e-01 4.252803438e-01 -1.25435703e-01
 29 3 234820 3.6911644994394371e+05 2.0198583031793276e+05 1.8765811298204614e-14 1.8832984186044047e+05 3.8410562035488407e+05 9.1656723874220697e+03 -999 3.19380062e-01 4.216666421e-01 -1.25553526e-01
 30 3 234820 4.2815017493823823e+05 2.4614663237712617e+05 1.8642569795513213e-14 1.9621227015492777e+05 4.5727428247685137e+05 8.6471283975825918e+03 -999 3.19787913e-01 4.178441608e-01 -1.25674751e-01
 31 3 234820 3.5244274308748753e+05 2.2060512247279979e+05 1.8435965909614156e-14 1.7533281933234553e+05 3.8159039342835144e+05 7.9973106139286529e+03 -999 3.20056884e-01 4.147316811e-01 -1.25749478e-01
 32 3 234820 2.8274251204386714e+05 1.7908240653622989e+05 1.8185554340362764e-14 1.5455264327808493e+05 3.0021100085162319e+05 7.4245922534743431e+03 -999 3.20367904e-01 4.110968579e-01 -1.25835492e-01
 33 3 234820 2.5377508428157991e+05 1.5791681372564274e+05 1.7926274268911138e-14 1.3995733153284481e+05 2.5833927886958970e+05 6.9127932045715788e+03 -999 3.20705584e-01 4.070886185e-01 -1.25927824e-01
 34 3 234820 2.6962709830304253e+05 1.5437658882501052e+05 1.7722774209867787e-14 1.3483405786156486e+05 2.7778092901523743e+05 6.4582911824044741e+03 -999 3.21005013e-01 4.034646203e-01 -1.26009138e-01
 35 3 234820 2.7803960780948657e+05 1.5550686500498280e+05 1.7589704847248597e-14 1.3156891048898135e+05 2.9355424369865336e+05 6.0633467161929038e+03 -999 3.21228233e-01 4.007162740e-01 -1.26070079e-01
 36 3 234820 2.3622825033264121e+05 1.3875383317185065e+05 1.7385123469368547e-14 1.1950613495808338e+05 2.5290429890866065e+05 5.5262057012178248e+03 -999 3.21422315e-01 3.978554338e-01 -1.26118487e-01
 37 3 234820 1.9167579894811861e+05 1.2566456471276328e+05 1.7134068460955359e-14 1.0634619038858538e+05 2.0377531876254966e+05 5.0598708273174416e+03 -999 3.21648901e-01 3.945542637e-01 -1.26175436e-01
 38 3 234820 1.6691748416721312e+05 1.1186254612330601e+05 1.6852304464988157e-14 9.4604068515009101e+04 1.7093431249712632e+05 4.6578821800047463e+03 -999 3.21902490e-01 3.909027767e-01 -1.26239719e-01
 39 3 234820 1.7338178289581783e+05 1.0879373374596787e+05 1.6605927165201045e-14 8.8287088759084203e+04 1.7808208718271958e+05 4.3103527350042632e+03 -999 3.22142904e-01 3.874751518e-01 -1.26301413e-01
 40 3 234820 1.8357794731218819e+05 1.0905915193540481e+05 1.6412620062879119e-14 8.5514841843635993e+04 1.9198899435889922e+05 4.0054358472337913e+03 -999 3.22348964e-01 3.845426159e-01 -1.26355451e-01
 41 3 234820 1.5547739101259536e+05 1.0018870514696716e+05 1.6190308984081967e-14 7.7424128234205520e+04 1.6668395078504266e+05 3.6102911852501929e+03 -999 3.22509913e-01 3.818975764e-01 -1.26394067e-01
 42 3 234820 1.2216102065656868e+05 9.0187851678757390e+04 1.5917333528130077e-14 6.7989537962943112e+04 1.3153944149387864e+05 3.2700472253790035e+03 -999 3.22708032e-01 3.787133405e-01 -1.26442693e-01
 43 3 234820 1.0114055095191467e+05 8.1063022720112276e+04 1.5594229216815566e-14 5.9269603690710494e+04 1.0497936687096451e+05 2.9799881912529581e+03 -999 3.22937609e-01 3.751071769e-01 -1.26500838e-01
 44 3 234820 1.0029889666279223e+05 7.7543612413262294e+04 1.5315973425525662e-14 5.4174274395529399e+04 1.0363390226229359e+05 2.7316978479831328e+03 -999 3.23154333e-01 3.717649503e-01 -1.26558278e-01
 45 3 234820 1.0396935215261528e+05 7.7608219954323984e+04 1.5083030612815308e-14 5.1345051536996871e+04 1.0972978374138515e+05 2.5187120963753055e+03 -999 3.23344235e-01 3.688581523e-01 -1.26611611e-01
 46 3 234820 8.8641303313583965e+04 7.1023208668838255e+04 1.4855154647675958e-14 4.6911962051009599e+04 9.5614732334172426e+04 2.2248909481475534e+03 -999 3.23491748e-01 3.662724290e-01 -1.26651619e-01
 47 3 234820 7.0835640310423463e+04 6.4696683679691916e+04 1.4567828153560630e-14 4.1873861111582286e+04 7.7336932000528104e+04 1.9867330525904747e+03 -999 3.23669413e-01 3.632120397e-01 -1.26701356e-01
 48 3 234820 5.6953134156319582e+04 5.8958507965018071e+04 1.4217779072765272e-14 3.6783894107185588e+04 6.1020847657161496e+04 1.7794540371917594e+03 -999 3.23882237e-01 3.595995378e-01 -1.26763683e-01
 49 3 234820 5.1867277936217222e+04 5.5547523002939466e+04 1.3894718943543785e-14 3.3187508261101408e+04 5.4334599079816267e+04 1.5983686873836766e+03 -999 3.24090774e-01 3.560869971e-01 -1.26829147e-01
 50 3 234820 4.9883794918410233e+04 5.3554821767315581e+04 1.3609935190327823e-14 3.0761758861462451e+04 5.2277237167366053e+04 1.4636190657148259e+03 -999 3.24277459e-01 3.529287581e-01 -1.26893190e-01
 51 3 234820 4.3493706611994225e+04 5.0752402050453522e+04 1.3357194781895897e-14 2.8481580672006137e+04 4.6159818415657959e+04 1.2716466217210973e+03 -999 3.24421161e-01 3.501540176e-01 -1.26933417e-01
 52 3 234820 3.5983384918254807e+04 4.7687436541750889e+04 1.3039988710005775e-14 2.5826388049199883e+04 3.8335791203119566e+04 1.1170208643365172e+03 -999 3.24599301e-01 3.467414270e-01 -1.26982217e-01
 53 3 234820 2.9565454864858515e+04 4.4526352341969505e+04 1.2648232098129224e-14 2.3008476955307422e+04 3.0988474580001002e+04 9.9050321137775154e+02 -999 3.24814259e-01 3.426181427e-01 -1.27040313e-01
 54 3 234820 2.6048729314103439e+04 4.1955878665335149e+04 1.2250726879238732e-14 2.0702160329773909e+04 2.6785017102269121e+04 8.9013421251437330e+02 -999 3.25027817e-01 3.384319004e-01 -1.27098923e-01
 55 3 234820 2.3854833207328553e+04 3.9936847906032788e+04 1.1920292083830932e-14 1.9083692343349114e+04 2.4246296499600568e+04 8.1039450570797612e+02 -999 3.25198961e-01 3.345837842e-01 -1.27158292e-01
 56 3 234820 2.1360479733832941e+04 3.8019450454039739e+04 1.1613264851481439e-14 1.7586839938553323e+04 2.1680812506030732e+04 7.1655654915946616e+02 -999 3.25300767e-01 3.308546609e-01 -1.27158022e-01
 57 3 234820 1.8640709747576806e+04 3.5819379395289056e+04 1.1238520633709667e-14 1.5879709268231732e+04 1.8840841054933087e+04 6.4587852000993485e+02 -999 3.25414823e-01 3.261341886e-01 -1.27144415e-01
 58 3 234820 1.6323631722507891e+04 3.3439562718429443e+04 1.0776776393729506e-14 1.4090351363113788e+04 1.6476865305578758e+04 5.9736592198227356e+02 -999 3.25537011e-01 3.202827487e-01 -1.27109869e-01
 59 3 234820 1.4923801230687357e+04 3.1378868560822382e+04 1.0334532811844666e-14 1.2645285766947351e+04 1.5250064410149498e+04 5.6398083825831031e+02 -999 3.25644869e-01 3.142958989e-01 -1.27057885e-01
 60 3 234820 1.4098833993519080e+04 2.9685604340370268e+04 9.9417948319285236e-15 1.1578037127285206e+04 1.4715115494255291e+04 5.3941549643228655e+02 -999 3.25741579e-01 3.085261557e-01 -1.26997926e-01
 61 3 234820 1.3001338668280323e+04 2.7837859701545618e+04 9.5456352011224918e-15 1.0602928828614606e+04 1.3976074883241536e+04 5.0846133068484551e+02 -999 3.25784194e-01 3.015140176e-01 -1.26839768e-01
 62 3 234820 1.2234735369929660e+04 2.5767060032403602e+04 9.0288627355094172e-15 9.7953598100366889e+03 1.3610607393934781e+04 5.0664293400461224e+02 -999 3.25915611e-01 2.920570834e-01 -1.26635551e-01
 63 3 234820 1.2183889544913005e+04 2.3783659006368678e+04 8.5761820542013526e-15 9.4963045510453630e+03 1.3894630407542094e+04 5.3227996826584422e+02 -999 3.26229158e-01 2.804106464e-01 -1.26438631e-01
 64 3 234820 1.2644786648428726e+04 2.2262664347770842e+04 8.2272127947498105e-15 9.6830748774214335e+03 1.4534149592821934e+04 5.7541298036349463e+02 -999 3.26753650e-01 2.684214660e-01 -1.26359555e-01
 65 3 234820 1.3155710811444556e+04 2.1109448818072451e+04 8.0197027768857744e-15 9.9978330270592214e+03 1.5105266602314123e+04 6.5553448644948389e+02 -999 3.27465211e-01 2.563185552e-01 -1.26462490e-01
 66 3 234820 1.2810503135920770e+04 1.9184188050063400e+04 7.6634432977550430e-15 9.1923209049837114e+03 1.4693559288559607e+04 8.6482324654214779e+02 -999 3.28617478e-01 2.376685035e-01 -1.27065864e-01
 67 3 234820 1.2548870812126610e+04 1.8150499771599207e+04 7.3709992953093094e-15 8.6583525107623063e+03 1.4091834819927819e+04 1.8462521603162788e+03 -999 3.30126092e-01 2.117324292e-01 -1.28622133e-01
 68 3 234820 1.2075946018913190e+04 1.8037788098204172e+04 7.0637749518633170e-15 8.7555663708256143e+03 1.3043509856260034e+04 4.8245732601733080e+03 -999 3.30587038e-01 1.851922294e-01 -1.31245348e-01
 69 3 234820 1.1948003523600422e+04 1.7808260723012248e+04 6.5678764353399545e-15 8.8111359980381912e+03 1.2432961160424386e+04 7.4703969937266847e+03 -999 3.29480200e-01 1.743612971e-01 -1.32579946e-01
 70 3 234820 1.1956554910947963e+04 1.7679516368594010e+04 6.2599598222442486e-15 8.8054336615660486e+03 1.2161783671236341e+04 9.2493202771579618e+03 -999 3.28416207e-01 1.688528319e-01 -1.33194423e-01
 71 3 234820 9.8654486707042397e+03 1.4711774038148764e+04 5.7729255305391309e-15 8.0597494318254894e+03 1.0311529080365157e+04 2.5026041934952122e+04 -999 3.23320672e-01 1.519670976e-01 -1.34464385e-01
 72 3 234820 8.4823518845976105e+03 1.4123961099925938e+04 5.2762285088637165e-15 7.1344045829954794e+03 8.6644736131859681e+03 7.6597183348656647e+04 -999 3.13363029e-01 1.331559747e-01 -1.34304921e-01
 73 3 234820 7.9562452572655438e+03 2.3704662042882032e+04 4.7901346666591326e-15 5.7341450134055458e+03 8.5970878176221922e+03 4.8178750415200433e+04 -999 3.03337441e-01 1.205659230e-01 -1.32026783e-01
 74 3 234820 7.9071919058386002e+03 2.7697827970540533e+04 4.4872646743643251e-15 5.5931961576856993e+03 1.0014328598713621e+04 2.8206416435222458e+04 -999 3.01875631e-01 1.187435401e-01 -1.31421691e-01
 75 3 234820 7.7275638037937124e+03 3.1084871216127282e+04 4.3523612249746257e-15 5.5254044806211177e+03 1.1926400678345679e+04 1.8204543007052500e+04 -999 3.01077582e-01 1.176761218e-01 -1.31055712e-01
 76 3 234820 6.7501422835753374e+03 2.1384868440116494e+04 4.2412054738733601e-15 5.1169050024661910e+03 8.0948767820299036e+03 1.5087147838132625e+04 -999 2.97354530e-01 1.128434312e-01 -1.29420449e-01
 77 3 234820 5.9778633424736472e+03 1.5600307722488176e+04 4.1120714001112408e-15 4.9400629539512820e+03 6.1067853937680911e+03 1.3551255836746401e+04 -999 2.94412425e-01 1.080185009e-01 -1.27568256e-01
 78 3 234820 5.5846875434181029e+03 1.3719083574536913e+04 3.9026282369332736e-15 4.8705731878067618e+03 5.6001224489003189e+03 1.3011463954244731e+04 -999 2.93642123e-01 1.050416046e-01 -1.26405619e-01
 79 3 234820 5.3556687521431868e+03 1.2383311806010501e+04 3.7910043670018208e-15 4.8646192161673334e+03 5.3207149945608571e+03 1.3747918632571978e+04 -999 2.93912723e-01 1.025060100e-01 -1.25518085e-01
 80 3 234820 5.3437621067934278e+03 1.1169028226817503e+04 3.8087579496030724e-15 4.9022818951930612e+03 5.2395756493135468e+03 1.3506522833283618e+04 -999 2.95358915e-01 1.000749103e-01 -1.24884940e-01
 81 3 234820 4.5407125687275375e+03 8.0810465914937749e+03 4.4144749550483966e-15 4.1011639828638126e+03 4.3705807813569199e+03 1.6719995283023276e+04 -999 3.13723140e-01 9.324539930e-02 -1.27032695e-01
 82 3 234820 4.7841497305370431e+03 7.9054015141884029e+03 4.7919222535727987e-15 4.0122962309235859e+03 4.6427337970142071e+03 4.4558684570998121e+04 -999 3.44298888e-01 8.715491825e-02 -1.34215418e-01
 83 3 234820 5.1598682283402250e+03 1.0424381272220942e+04 4.8802416275749953e-15 3.7591680039560842e+03 5.6729885350268351e+03 7.2388221119258436e+04 -999 3.78036445e-01 8.286661833e-02 -1.44875405e-01
 84 3 234820 5.3627311756510771e+03 1.0210457222303370e+04 4.4052861419198628e-15 3.4288661771301900e+03 8.6414670910398272e+03 1.1322103847580886e+05 -999 3.94087247e-01 8.133149931e-02 -1.50642728e-01
 85 3 234820 5.1941917468208158e+03 8.8501003758836450e+03 4.1903653182596115e-15 3.5693268064436788e+03 1.0627352424206059e+04 2.3403955374193093e+05 -999 4.05808349e-01 8.030694421e-02 -1.54849464e-01
 86 3 234820 3.2391050231255163e+03 4.5498308234007045e+03 4.4856449044999552e-15 2.8199954072673800e+03 3.3025756049755605e+03 3.2575469470149779e+05 -999 4.37389604e-01 7.794897028e-02 -1.66072815e-01
 87 3 234820 2.6885824911554623e+03 4.5543479886774303e+03 4.8426076576326170e-15 2.5001331683922458e+03 2.9270719770958281e+03 1.6764898335833653e+05 -999 4.68094733e-01 7.562913493e-02 -1.76345918e-01
 88 3 234820 2.5254478772770176e+03 5.9338057092003164e+03 5.5390048153663117e-15 2.2892449009486554e+03 3.1135005097215412e+03 1.6544026422960986e+05 -999 4.78386818e-01 7.494351123e-02 -1.79380127e-01
 89 3 234820 2.4690920245022971e+03 5.9706485191606853e+03 6.1468495312188202e-15 2.0487019415514669e+03 2.9869193115765479e+03 4.8609891986356793e+04 -999 4.82682575e-01 7.467906903e-02 -1.80576819e-01
 90 3 234820 2.4303459755259578e+03 5.0958784203904052e+03 6.0767541801552534e-15 1.9948800773363080e+03 2.7123435685766476e+03 4.4081073647992882e+04 -999 4.86153377e-01 7.447196356e-02 -1.81521485e-01
 91 3 234820 2.0283217204332379e+03 2.4259374094256705e+03 1.4473642925448479e-13 1.2928329050096086e+03 1.9439061957110721e+03 2.4816608395478784e+05 -999 5.55620460e-01 7.190136869e-02 -1.97042414e-01
 92 3 234820 1.9018145250021189e+03 2.2718723262710278e+03 5.3937206492883314e-13 8.4635160139400045e+02 1.8241996355841384e+03 6.4263189628812128e+04 -999 6.22390682e-01 7.098463984e-02 -2.06340537e-01
 93 3 234820 1.8829996399543502e+03 2.1025652280017289e+03 3.9210553403062178e-13 6.3559304910557364e+02 1.8195455412723038e+03 6.0979840695184910e+04 -999 6.70404421e-01 7.129384957e-02 -2.09624488e-01
 94 3 234820 1.8238828387337187e+03 2.0203021360519942e+03 5.4285086364970072e-13 5.6692810332117381e+02 1.7649794758367743e+03 3.1361132111340401e+04 -999 6.90468861e-01 7.168446644e-02 -2.10028465e-01
 95 3 234820 1.8318131140898265e+03 1.8769861586435420e+03 1.0438105242942193e-12 4.7354230237745008e+02 1.7872580017479218e+03 1.7565886405008780e+04 -999 7.27655525e-01 7.258771329e-02 -2.10038501e-01
 96 3 234820 1.3149331964687981e+03 1.5352669289586186e+03 1.3942132931656864e-12 3.3452769356898045e+02 1.2452504393132963e+03 2.5499035790393373e+04 -999 7.98336022e-01 7.513462344e-02 -2.06342627e-01
 97 3 234820 1.0734450293712084e+03 1.3266393931469063e+03 1.9288683678221389e-12 2.8662008132468787e+02 9.9453621916545899e+02 1.6960434481431363e+04 -999 8.69149147e-01 7.665819321e-02 -2.00872189e-01
 98 3 234820 9.5227063249430921e+02 1.2300610753687397e+03 2.5805229549697755e-12 2.5982091834271887e+02 8.6459348875988780e+02 1.3647761737498155e+04 -999 9.15402504e-01 7.640279722e-02 -1.96486625e-01
 99 3 234820 9.1262502020381498e+02 1.2801491103632125e+03 2.9553202857975247e-12 2.5732952759229818e+02 8.2112312201710029e+02 1.1257531053982011e+04 -999 9.34243605e-01 7.578075474e-02 -1.94671327e-01
 100 3 234820 8.8186553059744347e+02 1.7936382125651071e+03 2.8407421984352287e-12 2.4941323394839264e+02 7.8977925054402385e+02 1.0360385800234142e+04 -999 9.52155663e-01 7.501513491e-02 -1.92963455e-01
 101 3 234820 8.7746521080903540e+02 1.9712975088142659e+03 2.8717481207054938e-12 2.6136864698515859e+02 7.8769349757050998e+02 6.4925872644476367e+03 -999 9.59847654e-01 7.474881836e-02 -1.92662615e-01
 102 3 234820 8.7854613374961900e+02 1.9577448601591077e+03 2.7375969646382403e-12 2.9473282708555297e+02 7.8622087092452898e+02 7.7100490546487208e+03 -999 9.69624937e-01 7.438335146e-02 -1.92265088e-01
 103 3 234820 8.8506733432780607e+02 1.9167161532163871e+03 2.6256630635898768e-12 3.4760030696142769e+02 7.8901236075882912e+02 8.8503194866656249e+03 -999 9.80778834e-01 7.392487950e-02 -1.91769018e-01
 104 3 234820 9.0244121695238039e+02 1.8359825568813355e+03 2.5693165284444417e-12 4.1354931503825918e+02 8.0193998439611698e+02 1.0275852191496679e+04 -999 9.93802089e-01 7.335500151e-02 -1.91127140e-01
 105 3 234820 9.4963614773216398e+02 1.7635723807485874e+03 2.5755347595112668e-12 4.6636517715556585e+02 8.4254301191528566e+02 1.0545504486120781e+04 -999 1.00654402e+00 7.275948737e-02 -1.90399290e-01
 106 3 234820 9.2810397326897385e+02 1.7130608704426957e+03 2.1806138625634717e-12 5.0327896993356313e+02 8.1880083701341732e+02 9.9836049609060956e+03 -999 1.01901044e+00 7.229221802e-02 -1.90166539e-01
 107 3 234820 9.3441129178088204e+02 1.6798752274405583e+03 2.0716588969324555e-12 5.5299442678225239e+02 8.2467980165792869e+02 1.1285031224193212e+04 -999 1.02995700e+00 7.183425580e-02 -1.89913084e-01
 108 3 234820 9.5166867628734383e+02 1.5682702978986842e+03 2.0309509515585069e-12 5.7708127787747367e+02 8.3817948698703412e+02 9.1468920211279474e+03 -999 1.04042466e+00 7.136915454e-02 -1.89623719e-01
 109 3 234820 9.7559718461655086e+02 1.4172192377978854e+03 2.0449105662274672e-12 5.7812780359536828e+02 8.5440748870063055e+02 1.0307507201335126e+04 -999 1.05091574e+00 7.086940438e-02 -1.89235733e-01
 110 3 234820 9.9364151966935015e+02 1.3643309474039863e+03 2.0659555782354605e-12 5.7463028956975506e+02 8.6840376101088282e+02 1.1317113526366384e+04 -999 1.05656600e+00 7.053833711e-02 -1.88855813e-01
 111 3 234820 9.5942911618286450e+02 1.2933767407304326e+03 1.7859438229109999e-12 5.0732662533911821e+02 8.3702546173972257e+02 1.0758529192244239e+04 -999 1.05945751e+00 7.022195053e-02 -1.88487719e-01
 112 3 234820 9.3563409347027869e+02 1.2222513549448879e+03 1.6439997984723230e-12 4.4269462531801713e+02 8.1618646897920519e+02 1.3097202759419493e+04 -999 1.06300021e+00 6.986460651e-02 -1.88093253e-01
 113 3 234820 9.2884657791492191e+02 1.1312574454934629e+03 1.6930981208194448e-12 3.7553533857605498e+02 8.1072331479148045e+02 1.2779864466966173e+04 -999 1.06761754e+00 6.943060085e-02 -1.87638967e-01
 114 3 234820 9.3178027275453064e+02 1.0927529627153563e+03 1.8034202400924652e-12 3.4390043743826016e+02 8.1476403493986606e+02 1.3545929974656634e+04 -999 1.07085672e+00 6.914773999e-02 -1.87366187e-01
 115 3 234820 9.4358013752029854e+02 1.0560955078217896e+03 1.9412665416248539e-12 3.2097052791323136e+02 8.2672740213761529e+02 1.3187578272154122e+04 -999 1.07418882e+00 6.888626075e-02 -1.87119412e-01
 116 3 234820 9.5493173899027772e+02 1.0489067029788696e+03 1.8535457141255374e-12 3.0910225983927160e+02 8.3630281849094774e+02 1.2909180413077518e+04 -999 1.07698723e+00 6.877190050e-02 -1.87059538e-01
 117 3 234820 9.7023745627705057e+02 1.0299718662211453e+03 1.8295915618845629e-12 2.9512133639458705e+02 8.4913427715927855e+02 1.2812343805915554e+04 -999 1.08045991e+00 6.865541889e-02 -1.87068380e-01
 118 3 234820 9.8604743408342688e+02 1.0122508480576722e+03 1.8774303860977869e-12 2.9281010072976522e+02 8.6327342685441886e+02 1.2711924210366606e+04 -999 1.08428260e+00 6.848845565e-02 -1.86954411e-01
 119 3 234820 1.0256551660311163e+03 9.8190790673165668e+02 2.0145235889991528e-12 2.9039478879732275e+02 9.0021503292143188e+02 1.3525222198070400e+04 -999 1.08905156e+00 6.823437584e-02 -1.86681192e-01
 120 3 234820 1.0632921712343559e+03 9.7938795378705254e+02 2.0925212896928756e-12 2.8858605472341770e+02 9.3643646594270638e+02 1.2985090105719320e+04 -999 1.09141400e+00 6.807921398e-02 -1.86465660e-01
 121 3 234820 1.0077894242556562e+03 9.9503645964001385e+02 1.8176244103918749e-12 3.2670776670252428e+02 8.8827046659061727e+02 1.4465568357555667e+04 -999 1.09334340e+00 6.729751568e-02 -1.84854194e-01
 122 3 234820 1.0122986789023199e+03 1.0005601361364510e+03 1.7723674946838251e-12 3.5906437836210040e+02 8.9552870078742274e+02 1.2664106728107996e+04 -999 1.09670284e+00 6.642026855e-02 -1.82967134e-01
 123 3 234820 1.0231696413611809e+03 9.6984887075099221e+02 1.5743883832141783e-12 3.5380700364505373e+02 9.0569730989995116e+02 1.1710178794737150e+04 -999 1.10225687e+00 6.615881391e-02 -1.82613993e-01
 124 3 234820 1.0215563038988680e+03 9.4612014631109480e+02 1.4259486027967988e-12 3.5005638603773212e+02 9.0014639505744447e+02 1.1609578842709663e+04 -999 1.10758599e+00 6.634393774e-02 -1.83321187e-01
 125 3 234820 1.0283771892543807e+03 9.2925807970888263e+02 1.3472202586369378e-12 3.4535727475437415e+02 9.0377910274097133e+02 1.2074129871766885e+04 -999 1.11227801e+00 6.652015250e-02 -1.83966468e-01
 126 3 234820 1.0019924230184332e+03 9.1375838867049845e+02 1.1763703338586257e-12 3.3057804835502401e+02 8.7450227851106820e+02 1.2027879683783935e+04 -999 1.11582940e+00 6.654181211e-02 -1.84152451e-01
 127 3 234820 9.9409555726632891e+02 9.0186108876945730e+02 1.2560202451780303e-12 3.2564559720825548e+02 8.6564137244659526e+02 1.2584843643359689e+04 -999 1.11987372e+00 6.656864246e-02 -1.84406134e-01
 128 3 234820 1.0069398250111424e+03 8.9586331628555445e+02 1.4849445000873363e-12 3.3851811021771459e+02 8.8041461682330566e+02 1.3181077793574497e+04 -999 1.12390522e+00 6.656043133e-02 -1.84635677e-01
 129 3 234820 1.0141127702444759e+03 8.9809927743932474e+02 1.5898257906203913e-12 3.4544257357845498e+02 8.8978445673238662e+02 1.3742455937166418e+04 -999 1.12623256e+00 6.654929875e-02 -1.84765242e-01
 130 3 234820 1.0262008855618294e+03 8.9907372101678152e+02 1.6841920678795028e-12 3.4797730220125408e+02 9.0455293924965190e+02 1.4106157333442117e+04 -999 1.12853100e+00 6.655755825e-02 -1.84960490e-01
 131 3 234820 9.8469911191946585e+02 8.8099945696399175e+02 1.4257366074547726e-12 3.4291807204674353e+02 8.6375385461388771e+02 1.0946635233416000e+04 -999 1.13084087e+00 6.643299418e-02 -1.84792292e-01
 132 3 234820 9.7303700885491264e+02 8.7030899163465790e+02 1.3149003630104977e-12 3.3802497649644346e+02 8.5104534372729984e+02 1.1296467819803283e+04 -999 1.13371335e+00 6.639820246e-02 -1.84840657e-01
 133 3 234820 9.7381545312588150e+02 8.6223222142627947e+02 1.3210210861313903e-12 3.3080849287757241e+02 8.5184311522078883e+02 1.3827321885833393e+04 -999 1.13699708e+00 6.641029359e-02 -1.85020258e-01
 134 3 234820 9.7702468466848791e+02 8.5546975383883307e+02 1.3848326897287140e-12 3.2708471896536003e+02 8.5658920957412658e+02 1.2946714506790109e+04 -999 1.14011823e+00 6.647962492e-02 -1.85356457e-01
 135 3 234820 9.7691328933624538e+02 8.5103493596492604e+02 1.4344605854726521e-12 3.2134852655062309e+02 8.5823249369885605e+02 1.2365762187936671e+04 -999 1.14208441e+00 6.654610367e-02 -1.85626291e-01
 136 3 234820 9.3493757228396032e+02 8.4244562323919388e+02 1.2427037346725243e-12 3.1686574773017344e+02 8.1738841789889875e+02 1.3666336484475134e+04 -999 1.14416873e+00 6.659892565e-02 -1.85865462e-01
 137 3 234820 9.1229999064264655e+02 8.3108723612983670e+02 1.1928592889675909e-12 3.0405253424406186e+02 7.9562909455144029e+02 1.1619290503421527e+04 -999 1.14658296e+00 6.670397207e-02 -1.86240029e-01
 138 3 234820 9.0164636910728598e+02 8.1928623821538895e+02 1.2353143300298163e-12 2.9614757164919388e+02 7.8664014339420260e+02 1.2083373065787393e+04 -999 1.14899925e+00 6.681990934e-02 -1.86638421e-01
 139 3 234820 8.9827090540581037e+02 8.1181562431223676e+02 1.3127040216925920e-12 2.8933402790133732e+02 7.8531467640920482e+02 1.2959177441325484e+04 -999 1.15151809e+00 6.692731402e-02 -1.87018324e-01
 140 3 234820 8.9216130780801632e+02 8.0746281095135419e+02 1.3514905102455966e-12 2.8615547918365627e+02 7.8059076000195250e+02 1.3071234674177189e+04 -999 1.15249034e+00 6.695306025e-02 -1.87124913e-01
 141 3 234820 8.2929686310417674e+02 7.9538202066366568e+02 1.2052057674742723e-12 2.8195324030869199e+02 7.2251424674956252e+02 9.3209368095750015e+03 -999 1.15442049e+00 6.705254721e-02 -1.87416198e-01