TITLE = "005.01 ALPHA 3.90 GRIDLEVEL 4"

VARIABLES = "ITERATION"  "GRID_LEVEL"  "GRID_SIZE"  "CONTINUITY"  "MOMENTUMX"  "MOMENTUMY"  "MOMENTUMZ"  "ENERGY"  "TURB1"  "TURB2"  "CL_TOT"  "CD_TOT"  "CM_TOT"

DATASETAUXDATA ParticipantID   = "005"
DATASETAUXDATA SubmissionDate  = "10-31-2024"
DATASETAUXDATA Name            = "Jeffrey A. Housman"
DATASETAUXDATA Email           = "jeffrey.a.housman@nasa.gov"
DATASETAUXDATA Institution     = "NASA Ames Research Center"
DATASETAUXDATA SolverName      = "LAVA Curvilinear"
DATASETAUXDATA BasicAlgorithm  = "RANS"
DATASETAUXDATA TurbulenceModel = "SA-neg"
DATASETAUXDATA GridId          = "Multiblock"
DATASETAUXDATA Discretization  = "Finite difference"
DATASETAUXDATA Order           = "2"
DATASETAUXDATA DistanceCalc    = "Exact"
DATASETAUXDATA Notes           = " "

ZONE T = "005.01 - Alpha 3.90 - Grid Level 4"
AUXDATA Tstatic         = "271.0"
AUXDATA Deltat          = "-999"
AUXDATA GridFileName    = "ONERA-OAT15A_230mmChord_780mmSpan_upZ_2024_06_25-Structured_23mm_Level-4.x"
AUXDATA Misc            = " "
 0 4 430284 3.8725700207051757e+05 1.0772666782201098e+06 6.4510167448015889e-14 3.7792184391438513e+05 4.0998882013717963e+05 1.7169530256826060e+06 -999 1.62628861e-02 7.534483769e-01 -1.07868144e-02
 1 4 430284 5.5725833060329023e+05 8.2429378333234985e+05 5.5811522021085521e-14 2.9145204739925556e+05 5.4529508678506862e+05 1.1155662470437591e+06 -999 5.90142794e-02 7.048505201e-01 -2.73485909e-02
 2 4 430284 6.7244895037396939e+05 7.1447340015474509e+05 4.9279698935598793e-14 3.2044543245811504e+05 6.4718737284061336e+05 7.2797776571605145e+05 -999 1.09690993e-01 6.804643542e-01 -4.63721333e-02
 3 4 430284 7.8321968766127399e+05 6.4442292593017570e+05 4.4193883259673289e-14 3.7504472395939520e+05 7.5164610700826603e+05 4.7546480139524001e+05 -999 1.54995642e-01 6.667880472e-01 -6.40821028e-02
 4 4 430284 8.8492979407574376e+05 5.9194299175868405e+05 4.0175405836558464e-14 4.4091986630876712e+05 8.5639220417510998e+05 3.0523425424140156e+05 -999 1.94603331e-01 6.597331202e-01 -7.80945240e-02
 5 4 430284 9.8623611212709930e+05 5.9305541459967126e+05 3.6978636066589002e-14 5.1321301851719664e+05 9.7305111172761954e+05 1.9578524129693178e+05 -999 2.26234053e-01 6.553574461e-01 -8.89570647e-02
 6 4 430284 9.0524886985997960e+05 6.3114839506575314e+05 3.4524419081006372e-14 5.4116391915000393e+05 8.9573697657136281e+05 9.9788893925007913e+04 -999 2.48344074e-01 6.444825124e-01 -9.71478715e-02
 7 4 430284 9.2761858442120568e+05 6.4466414368167205e+05 3.2297312658350302e-14 5.6304609709624038e+05 9.1398729436427448e+05 7.9789287714589722e+04 -999 2.66011859e-01 6.301514789e-01 -1.04223246e-01
 8 4 430284 9.8662594013259420e+05 6.3680487128594413e+05 3.0656612159338288e-14 5.7438580882028269e+05 9.9266830809316214e+05 6.8529530935033777e+04 -999 2.79218538e-01 6.139129609e-01 -1.09422260e-01
 9 4 430284 1.1864933519055613e+06 6.9067453377144656e+05 2.9243416228885935e-14 6.3057206233559747e+05 1.2332177936719276e+06 6.1004231315950448e+04 -999 2.92439502e-01 5.940104020e-01 -1.14177783e-01
 10 4 430284 1.1125724383391591e+06 5.8634003730054642e+05 2.8449548288996145e-14 6.0034363624587143e+05 1.1506129594375941e+06 5.4962327154363564e+04 -999 2.99347962e-01 5.823624604e-01 -1.16575123e-01
 11 4 430284 1.0233067095142509e+06 5.7289240025942703e+05 2.7495080705755143e-14 5.8643144194874167e+05 1.0426177265331568e+06 4.9698647003568498e+04 -999 3.07448310e-01 5.680400085e-01 -1.19475868e-01
 12 4 430284 9.5197438090618374e+05 5.7581688666874194e+05 2.6737835619730295e-14 5.6340634978648485e+05 9.6336886919950496e+05 4.5453494768372642e+04 -999 3.14025798e-01 5.557468279e-01 -1.21716474e-01
 13 4 430284 1.0514662873201005e+06 5.8623532493525278e+05 2.6170532142577028e-14 5.8396472967895074e+05 1.0817819916487809e+06 4.2108485894856101e+04 -999 3.20645844e-01 5.423650722e-01 -1.23933743e-01
 14 4 430284 9.8254995438227756e+05 5.1660512121302419e+05 2.5752618489783402e-14 5.4916708077678399e+05 1.0065999058174145e+06 3.9201873600699400e+04 -999 3.24089738e-01 5.344479770e-01 -1.25135460e-01
 15 4 430284 1.1500627477871296e+06 6.5349376625007438e+05 2.5354639245484828e-14 5.9228984748995572e+05 1.2237818194396102e+06 3.6744709055580606e+04 -999 3.27810400e-01 5.250912616e-01 -1.26553547e-01
 16 4 430284 9.7332930695305578e+05 5.7906913474391587e+05 2.4913994332248657e-14 5.3516384063810436e+05 1.0301663327643550e+06 3.3890762362709334e+04 -999 3.30067182e-01 5.182325987e-01 -1.27491200e-01
 17 4 430284 8.6650253479540977e+05 4.8431067470555217e+05 2.4401015462976968e-14 5.0392488514387322e+05 8.8010142693850026e+05 3.1433479709997737e+04 -999 3.32699219e-01 5.093272396e-01 -1.28573230e-01
 18 4 430284 8.2526343085601705e+05 4.7362992343407625e+05 2.3989204328971158e-14 4.8296358133317943e+05 8.3406923426027107e+05 2.9321961256947623e+04 -999 3.34537993e-01 5.021324488e-01 -1.29274857e-01
 19 4 430284 9.5639288790339476e+05 5.1239506865209359e+05 2.3636773558039410e-14 4.9717305518457008e+05 1.0039933770743406e+06 2.7528707481801859e+04 -999 3.36306467e-01 4.946448767e-01 -1.29868002e-01
 20 4 430284 8.7975886443276913e+05 4.2017925212765939e+05 2.3444594827912422e-14 4.7210585796918906e+05 9.1173882566692261e+05 2.5951540204951289e+04 -999 3.37388082e-01 4.897338017e-01 -1.30174056e-01
 21 4 430284 8.0252183099900326e+05 4.2781949914018984e+05 2.3127443758203888e-14 4.5056450257808767e+05 8.2991311071581370e+05 2.4147191059056164e+04 -999 3.38453582e-01 4.841606226e-01 -1.30445831e-01
 22 4 430284 7.2124072338489862e+05 4.1267374898136489e+05 2.2781515183341779e-14 4.2062152921204153e+05 7.3781647811058781e+05 2.2588526829239618e+04 -999 3.39547123e-01 4.780402570e-01 -1.30710248e-01
 23 4 430284 7.4168640890913759e+05 4.1274573553419713e+05 2.2484233890083861e-14 4.1287044390013389e+05 7.5927927761089883e+05 2.1218283162478867e+04 -999 3.40636677e-01 4.713710099e-01 -1.30966645e-01
 24 4 430284 7.4537390217152843e+05 3.7438100555405207e+05 2.2324561954594393e-14 4.0443736874390283e+05 7.6243619867959386e+05 2.0005206167981967e+04 -999 3.41395005e-01 4.662290838e-01 -1.31147775e-01
 25 4 430284 8.0517976741156040e+05 4.1143189373299613e+05 2.2193619636045074e-14 4.0279413037833874e+05 8.4997076037035068e+05 1.8926803448782408e+04 -999 3.42008271e-01 4.617607464e-01 -1.31299831e-01
 26 4 430284 6.8098634490205906e+05 3.6652587190189509e+05 2.1954946836136856e-14 3.7184859436758142e+05 7.1633667799745221e+05 1.7689429928385638e+04 -999 3.42530913e-01 4.571540813e-01 -1.31426561e-01
 27 4 430284 6.0131927755543450e+05 3.4767957260232116e+05 2.1721367538979082e-14 3.4788766510152695e+05 6.1664767817017168e+05 1.6595352968983640e+04 -999 3.43063277e-01 4.522216194e-01 -1.31558588e-01
 28 4 430284 6.1106231958388141e+05 3.3768583905260870e+05 2.1529904675038294e-14 3.3700800408441265e+05 6.2270178125838307e+05 1.5636446605405639e+04 -999 3.43619662e-01 4.468420229e-01 -1.31699925e-01
 29 4 430284 6.2569198683772958e+05 3.1756020902576478e+05 2.1387882618957448e-14 3.3047995651044359e+05 6.4335090846216271e+05 1.4807854473611991e+04 -999 3.44028504e-01 4.427592642e-01 -1.31805678e-01
 30 4 430284 6.8551240269804676e+05 3.6143135297949146e+05 2.1265066752102441e-14 3.3213393869387382e+05 7.2757411894744041e+05 1.4067053379943767e+04 -999 3.44382750e-01 4.391436146e-01 -1.31896420e-01
 31 4 430284 5.7642997050640220e+05 3.1650734627335047e+05 2.1040135383580610e-14 3.0437731925865362e+05 6.1200447189620649e+05 1.3173841101835584e+04 -999 3.44679042e-01 4.355685787e-01 -1.31964262e-01
 32 4 430284 4.9215642655664805e+05 2.8835239972139511e+05 2.0781628142736386e-14 2.7989632854761044e+05 5.0865323119022162e+05 1.2360514890194961e+04 -999 3.45017488e-01 4.314628637e-01 -1.32041026e-01
 33 4 430284 4.7803478977720515e+05 2.7526599280473928e+05 2.0544792166314956e-14 2.6500060456274898e+05 4.8562912541613285e+05 1.1638129463859183e+04 -999 3.45363005e-01 4.272486030e-01 -1.32119427e-01
 34 4 430284 5.3494434411947289e+05 2.8434099533320504e+05 2.0377920147003933e-14 2.6506743612862506e+05 5.5572672794795560e+05 1.1004403881515664e+04 -999 3.45687769e-01 4.232555997e-01 -1.32193633e-01
 35 4 430284 5.2966782111200294e+05 2.6165576593631791e+05 2.0281074494987201e-14 2.5938534125954896e+05 5.5365144066717185e+05 1.0456484028485766e+04 -999 3.45910011e-01 4.204899592e-01 -1.32244850e-01
 36 4 430284 4.5924744313835143e+05 2.5298483440016472e+05 2.0064657232533971e-14 2.3941695443704902e+05 4.8435124163027207e+05 9.8146347563040072e+03 -999 3.46126903e-01 4.173683722e-01 -1.32290232e-01
 37 4 430284 3.8925138027941540e+05 2.3115482771255495e+05 1.9817813950422812e-14 2.1789429020901528e+05 4.0421023730683018e+05 9.2315047985398633e+03 -999 3.46368988e-01 4.139352030e-01 -1.32342117e-01
 38 4 430284 3.7129895554647181e+05 2.1556013545603707e+05 1.9573932696625349e-14 2.0357452411891636e+05 3.7571307570664264e+05 8.6920662138711341e+03 -999 3.46637912e-01 4.101699969e-01 -1.32400985e-01
 39 4 430284 4.0101195286009373e+05 2.1494200579507879e+05 1.9405659181137719e-14 1.9998590472712999e+05 4.1344126183224726e+05 8.2134944776786178e+03 -999 3.46871150e-01 4.069392978e-01 -1.32453027e-01
 40 4 430284 4.2997617442639894e+05 2.3469643656887437e+05 1.9293156928999475e-14 1.9931347946045786e+05 4.5584297599187715e+05 7.7952984500982320e+03 -999 3.47056614e-01 4.043859442e-01 -1.32495115e-01
 41 4 430284 3.6426385652467678e+05 2.0488643274946130e+05 1.9075405918081919e-14 1.8244742933444670e+05 3.8881936973016104e+05 7.3070723297395398e+03 -999 3.47224449e-01 4.017778400e-01 -1.32529737e-01
 42 4 430284 3.0084199996243906e+05 1.8537441858634344e+05 1.8805595908559483e-14 1.6532531302581143e+05 3.1531436593423015e+05 6.8671237262699578e+03 -999 3.47421965e-01 3.987823211e-01 -1.32571497e-01
 43 4 430284 2.7633367551631143e+05 1.6960886548110819e+05 1.8524844860942043e-14 1.5240952707218975e+05 2.7955803398585354e+05 6.4679815172198214e+03 -999 3.47638820e-01 3.955700273e-01 -1.32618396e-01
 44 4 430284 2.9787238326284214e+05 1.7089035379917678e+05 1.8295844986980102e-14 1.4791279673589047e+05 3.0541364960609545e+05 6.1062014870668027e+03 -999 3.47840430e-01 3.926422448e-01 -1.32662881e-01
 45 4 430284 3.2571098134880472e+05 1.7861239113650809e+05 1.8124873172469233e-14 1.4780368238020653e+05 3.4112167125177791e+05 5.7815496494456575e+03 -999 3.48016257e-01 3.901209182e-01 -1.32702373e-01
 46 4 430284 2.7655989737130795e+05 1.6248807397679728e+05 1.7912980484273770e-14 1.3535551565386727e+05 2.9540442845047993e+05 5.3812726319836001e+03 -999 3.48160073e-01 3.878344240e-01 -1.32731811e-01
 47 4 430284 2.2274648656828038e+05 1.4459876350509800e+05 1.7653785728623801e-14 1.2101126044823701e+05 2.3598863359339818e+05 5.0236576651906416e+03 -999 3.48334866e-01 3.851358885e-01 -1.32768265e-01
 48 4 430284 1.9617825016805847e+05 1.3082643388793863e+05 1.7363275839067540e-14 1.0924949684542780e+05 1.9952902963521739e+05 4.7035530365322020e+03 -999 3.48532251e-01 3.821634934e-01 -1.32810353e-01
 49 4 430284 2.0534364975134798e+05 1.2884050469120978e+05 1.7122042857465064e-14 1.0360063749241015e+05 2.1011358976008807e+05 4.4173773168593889e+03 -999 3.48717616e-01 3.794328353e-01 -1.32850825e-01
 50 4 430284 2.2354021046614635e+05 1.3772772346687363e+05 1.6938821449611121e-14 1.0162678117982164e+05 2.3540503965288907e+05 4.1625991204664533e+03 -999 3.48878166e-01 3.771010668e-01 -1.32886803e-01
 51 4 430284 1.8946547014947393e+05 1.2064943973011755e+05 1.6738030616026203e-14 9.2773217311659289e+04 2.0318214938084871e+05 3.8373776745057353e+03 -999 3.49016616e-01 3.749184854e-01 -1.32915448e-01
 52 4 430284 1.5218485364949558e+05 1.0650681877961494e+05 1.6488098409099358e-14 8.2991241826938276e+04 1.6312074076226592e+05 3.5316662435837084e+03 -999 3.49184377e-01 3.723315742e-01 -1.32950970e-01
 53 4 430284 1.3022865850307042e+05 9.6725417155271745e+04 1.6205797803068190e-14 7.4218054913619373e+04 1.3510208090169035e+05 3.2700873088559724e+03 -999 3.49377231e-01 3.694216529e-01 -1.32993009e-01
 54 4 430284 1.3010252264226976e+05 9.3274479771171580e+04 1.5957135396748455e-14 6.8959766950094287e+04 1.3377749604286306e+05 3.0380367704335172e+03 -999 3.49565356e-01 3.666335302e-01 -1.33035684e-01
 55 4 430284 1.3590121033887911e+05 9.4575809092547061e+04 1.5753741294256920e-14 6.6051023301050358e+04 1.4233619635839434e+05 2.8392003822187944e+03 -999 3.49733024e-01 3.641716659e-01 -1.33075746e-01
 56 4 430284 1.1680170436273025e+05 8.6503055040189574e+04 1.5560300527851910e-14 6.0905191286537542e+04 1.2467592395588658e+05 2.5782696609519853e+03 -999 3.49870582e-01 3.619923604e-01 -1.33107343e-01
 57 4 430284 9.4741281863653625e+04 7.8810394611226206e+04 1.5323168212385443e-14 5.4979400382236585e+04 1.0197470470866696e+05 2.3314187567983522e+03 -999 3.50038716e-01 3.593720300e-01 -1.33147110e-01
 58 4 430284 7.8639417451563684e+04 7.2149891382743939e+04 1.5025834437318213e-14 4.9070934604493559e+04 8.3047039046135731e+04 2.1227971595158560e+03 -999 3.50239526e-01 3.562873988e-01 -1.33196712e-01
 59 4 430284 7.3705003337409318e+04 6.8358724507984778e+04 1.4754809940788001e-14 4.4905468191467000e+04 7.6589322201864998e+04 1.9475340430904562e+03 -999 3.50437824e-01 3.532677305e-01 -1.33249102e-01
 60 4 430284 7.1995795821067906e+04 6.6143774484625173e+04 1.4529944593667223e-14 4.2040086690015247e+04 7.4929025544649383e+04 1.7980432245803349e+03 -999 3.50616953e-01 3.505347906e-01 -1.33300776e-01
 61 4 430284 6.2749998803293362e+04 6.2502795281525970e+04 1.4316603612099837e-14 3.8994199195557740e+04 6.6120278712137966e+04 1.6085656068588503e+03 -999 3.50760537e-01 3.481276539e-01 -1.33339999e-01
 62 4 430284 5.1914938363662171e+04 5.8605337351482747e+04 1.4044110657991903e-14 3.5427326435798670e+04 5.4888822158170107e+04 1.4452939687715327e+03 -999 3.50935797e-01 3.451981856e-01 -1.33388902e-01
 63 4 430284 4.3028189158456393e+04 5.4679302096092186e+04 1.3714308721435881e-14 3.1628395075543365e+04 4.4754388620732265e+04 1.2980043004291458e+03 -999 3.51144647e-01 3.416893481e-01 -1.33449541e-01
 64 4 430284 3.8525610056014470e+04 5.1582834838377486e+04 1.3387082724512614e-14 2.8530058611410721e+04 3.9434411799589245e+04 1.1829840672194832e+03 -999 3.51349165e-01 3.381830937e-01 -1.33513429e-01
 65 4 430284 3.5657768506540662e+04 4.9169090921846568e+04 1.3109514225717132e-14 2.6144787881107801e+04 3.6225427497574936e+04 1.0891411876319194e+03 -999 3.51530214e-01 3.349596084e-01 -1.33576231e-01
 66 4 430284 3.1655656260021784e+04 4.6846815908358396e+04 1.2869865270948558e-14 2.4172052898993737e+04 3.2210502410638921e+04 9.7089258243382847e+02 -999 3.51651505e-01 3.320063601e-01 -1.33608200e-01
 67 4 430284 2.7108536418089847e+04 4.4195733448789164e+04 1.2565905345975128e-14 2.1876553441527616e+04 2.7438017177500526e+04 8.7810201268181004e+02 -999 3.51790761e-01 3.283114867e-01 -1.33642123e-01
 68 4 430284 2.3186355886937890e+04 4.1337617872314629e+04 1.2179594120415957e-14 1.9410319233574792e+04 2.3208900053504945e+04 8.1088859637108612e+02 -999 3.51940831e-01 3.237812621e-01 -1.33674793e-01
 69 4 430284 2.0694390984347152e+04 3.8855035969986537e+04 1.1811199277287107e-14 1.7210712371525933e+04 2.0698372755177352e+04 7.6316012975421177e+02 -999 3.52069772e-01 3.191829210e-01 -1.33694937e-01
 70 4 430284 1.9109188955370737e+04 3.6842756798379945e+04 1.1485444445254631e-14 1.5681866830234138e+04 1.9258775945680740e+04 7.2630423801249992e+02 -999 3.52163040e-01 3.148606161e-01 -1.33708130e-01
 71 4 430284 1.7187038882223103e+04 3.4811969159096341e+04 1.1176092538963908e-14 1.4240136895183670e+04 1.7640345733082384e+04 6.7636745787898315e+02 -999 3.52170826e-01 3.100851711e-01 -1.33633583e-01
 72 4 430284 1.5376023820525628e+04 3.2521440321291891e+04 1.0800235269345369e-14 1.2839035567584064e+04 1.6209476029005966e+04 6.6226492243033363e+02 -999 3.52175322e-01 3.038006138e-01 -1.33515925e-01
 73 4 430284 1.4362017480328044e+04 3.0236485454205929e+04 1.0408728647719834e-14 1.1893259455004632e+04 1.5621983849269182e+04 6.8715062936757079e+02 -999 3.52190531e-01 2.959984564e-01 -1.33355914e-01
 74 4 430284 1.4293235073442638e+04 2.8442715083781313e+04 1.0062850075125882e-14 1.1651627119180897e+04 1.5903669278018981e+04 7.3928265906247327e+02 -999 3.52242816e-01 2.880175252e-01 -1.33201194e-01
 75 4 430284 1.4655780647806554e+04 2.7068974278682701e+04 9.8047239041488039e-15 1.1811844325489445e+04 1.6519453012460097e+04 8.3382505323757573e+02 -999 3.52354205e-01 2.800987699e-01 -1.33083831e-01
 76 4 430284 1.4235832214044460e+04 2.5041840922734416e+04 9.2499731561467144e-14 1.1077456164470746e+04 1.6353050582075757e+04 1.0313992676949429e+03 -999 3.52623210e-01 2.691198257e-01 -1.32978234e-01
 77 4 430284 1.4343319350460562e+04 2.3229907102902042e+04 2.4315923572479337e-13 1.0577631832386429e+04 1.6550217910351457e+04 1.6000345971725383e+03 -999 3.53231676e-01 2.536818885e-01 -1.33022417e-01
 78 4 430284 1.4638915291531534e+04 2.2509462469679092e+04 4.4329450777108059e-13 1.0429532475018919e+04 1.6751063890182460e+04 3.2338165444595566e+03 -999 3.54140148e-01 2.364313958e-01 -1.33458347e-01
 79 4 430284 1.5005705449103561e+04 2.3040541047635561e+04 6.6162491209663118e-13 1.0553953391608458e+04 1.6799915951926465e+04 8.9826209675280679e+03 -999 3.55007951e-01 2.193173872e-01 -1.34395909e-01
 80 4 430284 1.5430443734292425e+04 2.3975640550841468e+04 8.2693029711213140e-13 1.0754392094708772e+04 1.6836086129881682e+04 1.8715532187257111e+04 -999 3.55296441e-01 2.073374689e-01 -1.35382253e-01
 81 4 430284 1.3565693196800474e+04 1.9787422886141594e+04 6.8319378671766860e-13 9.9599281273026136e+03 1.4839461616480819e+04 9.6942277672937009e+04 -999 3.55114393e-01 1.847247357e-01 -1.37619436e-01
 82 4 430284 1.2385801670392775e+04 1.8523803310888579e+04 5.7316003938967621e-13 9.9396553032962693e+03 1.3589198916762576e+04 2.4813115756490186e+05 -999 3.53050967e-01 1.608398477e-01 -1.39948874e-01
 83 4 430284 1.1866119446903627e+04 2.6849808710011985e+04 5.3458044897592232e-13 9.6771798606564753e+03 1.4912133544432330e+04 1.3398883487865899e+05 -999 3.51910412e-01 1.559013407e-01 -1.40166882e-01
 84 4 430284 1.1656844105684395e+04 3.1157202089033195e+04 5.1897778132003864e-13 9.3540861875127248e+03 1.4530960240005430e+04 9.2375738146991891e+04 -999 3.51366271e-01 1.539898707e-01 -1.40194298e-01
 85 4 430284 1.1525401927632851e+04 3.1985484610699816e+04 5.0913324300394229e-13 9.2861649471498113e+03 1.4054886093612165e+04 6.9442598354686939e+04 -999 3.50994516e-01 1.528099371e-01 -1.40193470e-01
 86 4 430284 9.8606308910779899e+03 1.5892871911279119e+04 4.0168053714027919e-13 7.7089614048109279e+03 1.0297802663171939e+04 6.0093776787632916e+04 -999 3.46867171e-01 1.371732692e-01 -1.40385637e-01
 87 4 430284 8.9240180610266943e+03 1.5640842053206568e+04 3.2324436032792679e-13 6.7061478635656940e+03 9.0791869091081353e+03 4.6063268838477008e+04 -999 3.42994438e-01 1.275858147e-01 -1.39578758e-01
 88 4 430284 8.4299496525435989e+03 1.5277147772221977e+04 2.8220238605934017e-13 6.1757267317330643e+03 8.5268667525924775e+03 3.1379654570297633e+04 -999 3.40949517e-01 1.229180028e-01 -1.38802709e-01
 89 4 430284 8.1225415299339065e+03 1.4865045916700523e+04 2.5593344760547694e-13 5.8094600593771956e+03 8.3763963879963321e+03 2.5789816561274354e+04 -999 3.39774491e-01 1.198892299e-01 -1.38199634e-01
 90 4 430284 7.9468246691670638e+03 1.4529159893031803e+04 2.3772905028658895e-13 5.5737596947986531e+03 9.1895551276311635e+03 2.2097191624492072e+04 -999 3.39107700e-01 1.177467827e-01 -1.37746326e-01
 91 4 430284 7.0796817585161916e+03 1.3064728404417712e+04 3.3247780128685969e-13 4.9919521135612567e+03 7.7639262837339647e+03 2.1009278029692654e+04 -999 3.39884264e-01 1.136961372e-01 -1.37135568e-01
 92 4 430284 6.3196598802987028e+03 1.1316563860762444e+04 5.2613738819023307e-13 4.5300771395150923e+03 6.4743332680877256e+03 2.0554555433232330e+04 -999 3.42321568e-01 1.088099825e-01 -1.36642592e-01
 93 4 430284 5.9043995158962543e+03 1.0004150878134229e+04 6.6441360324459127e-13 4.2957195441910681e+03 5.8107685709638663e+03 2.3945127725048227e+04 -999 3.46910699e-01 1.041725574e-01 -1.36664004e-01
 94 4 430284 5.9246118722898846e+03 9.3908452528188172e+03 7.3050959728713613e-13 4.1889732341969402e+03 5.7169887642488120e+03 4.3386848908658947e+04 -999 3.53135742e-01 1.003440582e-01 -1.37319161e-01
 95 4 430284 6.1448249078728495e+03 9.2329590226659893e+03 7.4816015083032081e-13 4.1184909444981213e+03 5.9028329852107081e+03 5.7206233413988761e+04 -999 3.58180552e-01 9.814979469e-02 -1.38139702e-01
 96 4 430284 5.0338942757062414e+03 7.6355823173341896e+03 7.8377573922636692e-13 3.7217338321360548e+03 4.8352010911285734e+03 9.6002471775703511e+04 -999 3.71150123e-01 9.377350062e-02 -1.40624822e-01
 97 4 430284 4.8667125881355842e+03 6.8600559314586699e+03 9.9402365819899033e-13 3.6241394098214550e+03 4.8006921818538449e+03 1.4762018080289342e+05 -999 3.94952053e-01 8.844573062e-02 -1.46463577e-01
 98 4 430284 4.8441138420857451e+03 8.4315415154149741e+03 9.0225619058887664e-13 3.3680283962186008e+03 5.4648052635393778e+03 1.7630044547547249e+05 -999 4.22547592e-01 8.449574600e-02 -1.54389736e-01
 99 4 430284 4.4667805797682022e+03 9.6436774908659409e+03 7.5807596192534447e-13 3.2448087129880359e+03 6.7787014671869010e+03 1.6322223636897121e+05 -999 4.37464015e-01 8.302156850e-02 -1.59048743e-01
 100 4 430284 4.1047583592856327e+03 8.9046349004643216e+03 6.7406620620543464e-13 3.0913492252161413e+03 7.4815942258402483e+03 2.1189795550004361e+05 -999 4.47050633e-01 8.219941510e-02 -1.62067319e-01
 101 4 430284 3.2297236150372928e+03 3.9556484411367901e+03 7.2832758828204404e-13 2.5735027534574060e+03 3.2507417268755826e+03 1.6056311682129020e+05 -999 4.76305223e-01 7.978471973e-02 -1.71079994e-01
 102 4 430284 2.9744756403175907e+03 3.6615555143449697e+03 8.3164483148800046e-13 2.1364114191978333e+03 3.0539930834596212e+03 1.2244864081520458e+05 -999 5.06141654e-01 7.789304130e-02 -1.79962092e-01
 103 4 430284 2.8688349943206613e+03 3.6228442673985323e+03 8.9065870456425683e-13 1.7713285234263308e+03 2.9474969162285565e+03 1.2105448573628571e+05 -999 5.37344268e-01 7.636550418e-02 -1.88518777e-01
 104 4 430284 2.8478568423163015e+03 3.6245175859343499e+03 9.3850958872404411e-13 1.4878018803141686e+03 2.9699881951161296e+03 5.8321345783287834e+04 -999 5.70274614e-01 7.522450891e-02 -1.96439272e-01
 105 4 430284 2.9312268081524589e+03 3.5352496395110475e+03 9.7479633065378731e-13 1.2282293815356800e+03 2.9847179558600305e+03 4.1146517196595712e+04 -999 6.04627077e-01 7.447313953e-02 -2.03367221e-01
 106 4 430284 2.8413964835164006e+03 2.9071193736254463e+03 9.0978354227719605e-13 1.0501788503637458e+03 2.8085915486362173e+03 2.4202329384063847e+04 -999 6.32534591e-01 7.432478465e-02 -2.07980870e-01
 107 4 430284 2.8866614661684748e+03 2.6479046239145364e+03 1.0787421821111517e-12 8.4456373018321267e+02 2.8241148444637133e+03 1.8552569049491794e+04 -999 6.69390504e-01 7.447364272e-02 -2.13025493e-01
 108 4 430284 2.8156310111355174e+03 2.4980495910502736e+03 1.0662711153045503e-12 7.1375178949825147e+02 2.7501686833375907e+03 1.6629275164239356e+04 -999 6.90482124e-01 7.457389388e-02 -2.14861369e-01
 109 4 430284 2.7984573744596278e+03 2.3812372983652831e+03 1.0204692666906466e-12 6.3024566879112933e+02 2.7346920882279892e+03 1.5326352970636028e+04 -999 7.15323891e-01 7.484590832e-02 -2.16389635e-01
 110 4 430284 2.7747694189389504e+03 2.3006407718180158e+03 9.9636511070859390e-13 5.8600974580096931e+02 2.7089079908119247e+03 1.4955718507356209e+04 -999 7.32953685e-01 7.522277827e-02 -2.16952371e-01
 111 4 430284 2.6255353537156407e+03 2.1877895012677254e+03 9.9883646074347287e-13 5.3151201380613008e+02 2.5454755618714671e+03 1.3455394467332446e+04 -999 7.57062768e-01 7.607522881e-02 -2.17273907e-01
 112 4 430284 2.5757659433320214e+03 2.0884758973671051e+03 1.2797120657800050e-12 4.9528316023325868e+02 2.4903322425912916e+03 1.2492120737430259e+04 -999 7.90406145e-01 7.770999178e-02 -2.17014225e-01
 113 4 430284 2.5173322080161088e+03 2.0055708715829428e+03 1.4125794931982559e-12 4.5159303850366757e+02 2.4332084516540644e+03 1.1624703323609856e+04 -999 8.22749274e-01 7.983808011e-02 -2.15918241e-01
 114 4 430284 2.4730219687080598e+03 1.9379408000383471e+03 1.4560190369621538e-12 4.1962059401529245e+02 2.3876995748524459e+03 1.0534304102941473e+04 -999 8.46160154e-01 8.166663260e-02 -2.14540805e-01
 115 4 430284 2.3813083633902697e+03 1.8707462820620390e+03 1.4350545782072301e-12 4.0805204093041669e+02 2.3052106785452456e+03 9.9548356279650779e+03 -999 8.74970092e-01 8.404222185e-02 -2.12236530e-01
 116 4 430284 2.2371624486141418e+03 1.7739020218620176e+03 1.3208087884401712e-12 3.7667257764078863e+02 2.1521705973451717e+03 9.2375618051027686e+03 -999 9.00374750e-01 8.623781299e-02 -2.09371591e-01
 117 4 430284 2.0361401924777977e+03 1.6881377769461651e+03 1.2933352433193407e-12 3.8255732721086605e+02 1.9571261921240446e+03 8.8682382944288074e+03 -999 9.21530619e-01 8.782000650e-02 -2.05633163e-01
 118 4 430284 1.9161270436062787e+03 1.6170135125200416e+03 1.4077033043664615e-12 3.6817705844867152e+02 1.8244219278509272e+03 8.6763902448901918e+03 -999 9.40728901e-01 8.896416091e-02 -2.02415413e-01
 119 4 430284 1.8030825014716725e+03 1.5440037357665308e+03 1.3983132997270847e-12 3.5961470589123252e+02 1.6998013102570603e+03 8.4971212536199619e+03 -999 9.58266038e-01 8.958590820e-02 -1.99785198e-01
 120 4 430284 1.7038048588762256e+03 1.4687024281321328e+03 1.4436209052971523e-12 3.4584063222852899e+02 1.5845285278747485e+03 8.3688681253746781e+03 -999 9.74473231e-01 8.960942949e-02 -1.97787729e-01
 121 4 430284 1.5590085905651949e+03 1.3684798955442425e+03 1.7608805011104604e-12 3.8951152029364692e+02 1.4305371619782143e+03 8.2930180624930017e+03 -999 9.92476902e-01 8.827887522e-02 -1.95899810e-01
 122 4 430284 1.4717966127280447e+03 1.2846504487902657e+03 2.2267480073948206e-12 3.8218292880219650e+02 1.3299254668267195e+03 8.1810352584918246e+03 -999 1.00934560e+00 8.619905499e-02 -1.95106254e-01
 123 4 430284 1.4088571939180154e+03 1.2316614483869485e+03 2.4445692188894798e-12 3.8233776908668324e+02 1.2577061718107741e+03 8.1049941312261080e+03 -999 1.02401822e+00 8.416043315e-02 -1.95184786e-01
 124 4 430284 1.3786131502073313e+03 1.2134271407978711e+03 2.5950408107929984e-12 3.8634503102586473e+02 1.2223443424994887e+03 7.9972336984336243e+03 -999 1.03206974e+00 8.304432541e-02 -1.95410781e-01
 125 4 430284 1.3538854958129759e+03 1.2102538417255291e+03 2.7175126405583530e-12 3.9075052046174068e+02 1.1949537271941010e+03 8.1542617795148944e+03 -999 1.03901197e+00 8.211096430e-02 -1.95633315e-01
 126 4 430284 1.3288720135404483e+03 1.2118910055507861e+03 2.4864668328970923e-12 3.9431486804563048e+02 1.1674376005544680e+03 8.4022632183386122e+03 -999 1.04603732e+00 8.118085227e-02 -1.95845898e-01
 127 4 430284 1.3149106879760345e+03 1.2227447053963469e+03 2.6962525993630364e-12 4.0337868746186729e+02 1.1514885585004829e+03 8.6803366798346979e+03 -999 1.05351150e+00 8.026979722e-02 -1.96121564e-01
 128 4 430284 1.3079244520218185e+03 1.2363250276124531e+03 3.1974990750213463e-12 4.1323408224533955e+02 1.1442431308263035e+03 8.9866599728621422e+03 -999 1.06073535e+00 7.943725423e-02 -1.96366163e-01
 129 4 430284 1.3169029778228869e+03 1.2618686030997776e+03 3.7364948520613542e-12 4.2179466408041344e+02 1.1541444132552804e+03 9.4054196495514334e+03 -999 1.06802624e+00 7.865467781e-02 -1.96578982e-01
 130 4 430284 1.3392332453156903e+03 1.3057626289373727e+03 4.0426248319720941e-12 4.2774926807010871e+02 1.1770532550563626e+03 1.0139856235000381e+04 -999 1.07326178e+00 7.812539458e-02 -1.96674666e-01
 131 4 430284 1.3146231381715140e+03 1.3240728739712365e+03 3.4499114905838350e-12 4.2574409870540791e+02 1.1554641571343200e+03 1.1225791151924866e+04 -999 1.07777725e+00 7.768600632e-02 -1.96707598e-01
 132 4 430284 1.3051154259720577e+03 1.3388464006957906e+03 2.9561052448746715e-12 4.3200934406103687e+02 1.1488532983841635e+03 1.2412982735866752e+04 -999 1.08356039e+00 7.716950575e-02 -1.96727942e-01
 133 4 430284 1.3104215846541783e+03 1.3458290435209883e+03 2.7691316638564006e-12 4.4063404703623837e+02 1.1565879182013371e+03 1.4119696945364009e+04 -999 1.08994375e+00 7.667344384e-02 -1.96739218e-01
 134 4 430284 1.3380418451037185e+03 1.3534988151608950e+03 2.8349991583388989e-12 4.4672791260996411e+02 1.1843502488439788e+03 1.5842112527036321e+04 -999 1.09617562e+00 7.626924150e-02 -1.96733755e-01
 135 4 430284 1.3660706301303203e+03 1.3587555172376346e+03 2.9507978123137093e-12 4.4728561786498693e+02 1.2133238301836918e+03 1.7544520359335220e+04 -999 1.10074148e+00 7.602274310e-02 -1.96697954e-01
 136 4 430284 1.3329947433616026e+03 1.3918273848260678e+03 2.6166397954370209e-12 4.4398057748736608e+02 1.1832455456120281e+03 1.9656843199076549e+04 -999 1.10348526e+00 7.584274095e-02 -1.96540559e-01
 137 4 430284 1.3157451590816027e+03 1.4075602724451669e+03 2.3077190230920712e-12 4.4327833883597367e+02 1.1670966933544466e+03 2.1275253022555909e+04 -999 1.10693434e+00 7.563425322e-02 -1.96325312e-01
 138 4 430284 1.3263474238542738e+03 1.3901080723841026e+03 2.1594177426454693e-12 4.4471284590365218e+02 1.1773954246132580e+03 2.2863150758910306e+04 -999 1.11132870e+00 7.540609944e-02 -1.96045632e-01
 139 4 430284 1.3552044317675345e+03 1.3678539348536781e+03 2.2226339139096390e-12 4.4156934914272063e+02 1.2063255535361980e+03 2.4072408550444841e+04 -999 1.11533447e+00 7.524949941e-02 -1.95805733e-01
 140 4 430284 1.3681250476943776e+03 1.3706436653270214e+03 2.3069233035034600e-12 4.3900421597817217e+02 1.2208346804079906e+03 2.5252566645681687e+04 -999 1.11798453e+00 7.516195163e-02 -1.95624753e-01
 141 4 430284 1.3173063276449489e+03 1.3721585050513086e+03 1.9621771038438025e-12 4.3831315833833463e+02 1.1714788594280308e+03 2.5657082408701157e+04 -999 1.12083985e+00 7.504195402e-02 -1.95297290e-01