TITLE = "005.01 ALPHA 3.10 GRIDLEVEL 1"

VARIABLES = "ITERATION"  "GRID_LEVEL"  "GRID_SIZE"  "CONTINUITY"  "MOMENTUMX"  "MOMENTUMY"  "MOMENTUMZ"  "ENERGY"  "TURB1"  "TURB2"  "CL_TOT"  "CD_TOT"  "CM_TOT"

DATASETAUXDATA ParticipantID   = "005"
DATASETAUXDATA SubmissionDate  = "10-31-2024"
DATASETAUXDATA Name            = "Jeffrey A. Housman"
DATASETAUXDATA Email           = "jeffrey.a.housman@nasa.gov"
DATASETAUXDATA Institution     = "NASA Ames Research Center"
DATASETAUXDATA SolverName      = "LAVA Curvilinear"
DATASETAUXDATA BasicAlgorithm  = "RANS"
DATASETAUXDATA TurbulenceModel = "SA-neg"
DATASETAUXDATA GridId          = "Multiblock"
DATASETAUXDATA Discretization  = "Finite difference"
DATASETAUXDATA Order           = "2"
DATASETAUXDATA DistanceCalc    = "Exact"
DATASETAUXDATA Notes           = " "

ZONE T = "005.01 - Alpha 3.10 - Grid Level 1"
AUXDATA Tstatic         = "271.0"
AUXDATA Deltat          = "-999"
AUXDATA GridFileName    = "ONERA-OAT15A_230mmChord_780mmSpan_upZ_2024_06_25-Structured_23mm_Level-1.x"
AUXDATA Misc            = " "
 0 1 52831 9.5872934920580228e+04 1.6311181781882996e+05 2.0240643594985266e-14 8.0782255145483388e+04 9.6284708745065931e+04 1.8680773514784136e+05 -999 5.38041143e-03 3.094432860e-01 -3.40132422e-03
 1 1 52831 1.2555547305192912e+05 1.3449996692962281e+05 1.8620329088603918e-14 6.9172590610816624e+04 1.2161730023883094e+05 1.1942497035856276e+05 -999 4.52040829e-02 3.185326831e-01 -2.02992015e-02
 2 1 52831 1.4865957147535332e+05 1.2154692506213773e+05 1.7434781415124687e-14 7.5001978565820857e+04 1.4214859712275106e+05 7.6465364941336709e+04 -999 8.73366721e-02 3.349098668e-01 -3.78292554e-02
 3 1 52831 1.7318780266673092e+05 1.1168720404795677e+05 1.6526432946523537e-14 8.3771547903843340e+04 1.6513444802967561e+05 4.8240783641775633e+04 -999 1.22240404e-01 3.534964622e-01 -5.31530350e-02
 4 1 52831 1.9818892901292315e+05 1.0213597273492775e+05 1.5862804054110277e-14 9.4499427684105729e+04 1.9061843229728841e+05 2.2468830503115907e+04 -999 1.51680710e-01 3.734202933e-01 -6.48809424e-02
 5 1 52831 2.1888673581805115e+05 9.9872109402698756e+04 1.5439965297641449e-14 1.0693293387700332e+05 2.1353175964638474e+05 1.7857533262153738e+04 -999 1.76138588e-01 3.934186569e-01 -7.40451804e-02
 6 1 52831 1.9574374309169274e+05 1.2217864834344415e+05 1.5120387350902574e-14 1.1161256029100622e+05 1.9225074926058951e+05 1.4789375704372547e+04 -999 1.93555269e-01 4.067754893e-01 -8.10104733e-02
 7 1 52831 1.8240242118324141e+05 1.3485509545331416e+05 1.4869315422577973e-14 1.1059425775707542e+05 1.7678158635625368e+05 1.2470280417177602e+04 -999 2.06829272e-01 4.151925083e-01 -8.67275993e-02
 8 1 52831 1.9875735618970176e+05 1.3185195499757852e+05 1.4709173510906976e-14 1.0580180176929969e+05 1.9955016449108874e+05 1.0645471964936805e+04 -999 2.16821272e-01 4.164346678e-01 -9.11303595e-02
 9 1 52831 1.9358749630755981e+05 1.1545345351654699e+05 1.4590125802581267e-14 1.0049269881931893e+05 1.9555650263501125e+05 9.3182213209627444e+03 -999 2.25706210e-01 4.135801288e-01 -9.47082767e-02
 10 1 52831 2.0893277045707306e+05 1.1776108023273954e+05 1.4517435514900660e-14 9.8665340588493011e+04 2.1587979331829943e+05 8.2855487641420914e+03 -999 2.33276109e-01 4.106748758e-01 -9.75405780e-02
 11 1 52831 1.6711114871368057e+05 1.0274722574701978e+05 1.4415202465780785e-14 8.7615572006195100e+04 1.7309683374915397e+05 7.1693435554046455e+03 -999 2.41103039e-01 4.074800619e-01 -1.00415577e-01
 12 1 52831 1.4927937126586132e+05 9.1886676960601704e+04 1.4336606995121546e-14 8.1249257491157754e+04 1.5016504196233684e+05 6.3036762665863907e+03 -999 2.48337995e-01 4.047959904e-01 -1.02979974e-01
 13 1 52831 1.3394639645211122e+05 8.2131876212574294e+04 1.4263408148398335e-14 7.4123722057779116e+04 1.3371312436748194e+05 5.6550397791718860e+03 -999 2.53733915e-01 4.027187966e-01 -1.04902789e-01
 14 1 52831 1.5009918423388258e+05 8.3528413895634541e+04 1.4215999029226056e-14 7.2951048279930154e+04 1.5464555901822652e+05 5.1366854300863615e+03 -999 2.57897362e-01 4.008114644e-01 -1.06465667e-01
 15 1 52831 1.2985206722573109e+05 6.8811843067591210e+04 1.4189748577647978e-14 6.5895470090906907e+04 1.3319095988656298e+05 4.6921513299269936e+03 -999 2.60305667e-01 3.992822558e-01 -1.07455745e-01
 16 1 52831 1.1660946544729431e+05 6.8480765789717814e+04 1.4126178196381926e-14 6.1662104188069468e+04 1.1960725141534298e+05 4.1687987537143599e+03 -999 2.62432025e-01 3.973749968e-01 -1.08402255e-01
 17 1 52831 1.0131140497494383e+05 6.6325035197174118e+04 1.4048261012651737e-14 5.5712501445631286e+04 1.0391769195008314e+05 3.7394673344552366e+03 -999 2.64555767e-01 3.950951617e-01 -1.09383028e-01
 18 1 52831 9.6922163133104492e+04 6.0653247533998037e+04 1.3968901271436538e-14 5.0785526855282114e+04 9.8297885828659942e+04 3.3828750209597370e+03 -999 2.66865317e-01 3.921891782e-01 -1.10467497e-01
 19 1 52831 8.7972284929388145e+04 5.4501424890649345e+04 1.3920646624126990e-14 4.6566852923570448e+04 8.9365105862193173e+04 3.0861701077802863e+03 -999 2.68436896e-01 3.898719922e-01 -1.11191649e-01
 20 1 52831 9.8457423300658556e+04 5.8223451799795519e+04 1.3867962274185197e-14 4.6039520395941239e+04 1.0272719674133339e+05 2.8339490891231439e+03 -999 2.69935048e-01 3.874273951e-01 -1.11855277e-01
 21 1 52831 7.9672518002319630e+04 5.3706685241381885e+04 1.3760882423279115e-14 4.0722713188948692e+04 8.4720588808152257e+04 2.5314196401202894e+03 -999 2.71144734e-01 3.848716439e-01 -1.12357015e-01
 22 1 52831 6.3720053067591572e+04 4.6663077245174572e+04 1.3629799762170189e-14 3.5626755049673469e+04 6.6630110586800569e+04 2.2819430214689319e+03 -999 2.72385579e-01 3.819490776e-01 -1.12851153e-01
 23 1 52831 5.6851836416320417e+04 4.2746367754803039e+04 1.3466230141251590e-14 3.1576995643159495e+04 5.7600795121169584e+04 2.0691074460862606e+03 -999 2.73695707e-01 3.784387441e-01 -1.13354166e-01
 24 1 52831 5.4905701244277916e+04 4.0343507834390031e+04 1.3334409380977637e-14 2.9077596897635842e+04 5.6565408896491856e+04 1.8905995987428728e+03 -999 2.74565407e-01 3.757066517e-01 -1.13681282e-01
 25 1 52831 5.9910648691791939e+04 4.1827341223515010e+04 1.3209786371633921e-14 2.8188759943086970e+04 6.3147544089100156e+04 1.7371703502650871e+03 -999 2.75308432e-01 3.730949313e-01 -1.13962631e-01
 26 1 52831 4.8656157862319080e+04 3.8237609992838443e+04 1.3060760104931571e-14 2.4980306094385458e+04 5.2528069453100114e+04 1.5290116231321701e+03 -999 2.75854333e-01 3.705000262e-01 -1.14164968e-01
 27 1 52831 3.6832873649025620e+04 3.3949508378146449e+04 1.2869890735312676e-14 2.1452100652573976e+04 3.9558592981968883e+04 1.3557277365999889e+03 -999 2.76475222e-01 3.673420948e-01 -1.14395026e-01
 28 1 52831 2.9561151928806357e+04 3.0749799627327986e+04 1.2653398480145073e-14 1.8453798919250305e+04 3.0351578585775758e+04 1.2129897079766538e+03 -999 2.77101824e-01 3.638813081e-01 -1.14627098e-01
 29 1 52831 2.9163637203724949e+04 2.9524990544248452e+04 1.2454672405615006e-14 1.6793756333456320e+04 3.0153395382335384e+04 1.0951936297289074e+03 -999 2.77619955e-01 3.607748680e-01 -1.14821186e-01
 30 1 52831 3.0542326865873922e+04 2.9156173652344623e+04 1.2268820851956025e-14 1.5868682693451328e+04 3.2244672399682117e+04 9.9752042420060616e+02 -999 2.78072252e-01 3.578696491e-01 -1.14994422e-01
 31 1 52831 2.5533060217072085e+04 2.7220396363798518e+04 1.2084198384632365e-14 1.4476665760826560e+04 2.7630535012195414e+04 8.5952207122921243e+02 -999 2.78368705e-01 3.552440823e-01 -1.15103117e-01
 32 1 52831 1.9733724548750430e+04 2.5126074545312033e+04 1.1841877421100240e-14 1.2877652592511635e+04 2.1511025134360614e+04 7.4732186674956813e+02 -999 2.78720702e-01 3.520086670e-01 -1.15231883e-01
 33 1 52831 1.5253514459065867e+04 2.3205864814729255e+04 1.1557987647217102e-14 1.1326785766346276e+04 1.6035654647465957e+04 6.5576022071569628e+02 -999 2.79114833e-01 3.481928707e-01 -1.15376034e-01
 34 1 52831 1.3688888329446940e+04 2.2039441860899940e+04 1.1288038056543628e-14 1.0257127075355509e+04 1.4057645936351861e+04 5.8391457119439531e+02 -999 2.79480478e-01 3.443962809e-01 -1.15511732e-01
 35 1 52831 1.3192060960384573e+04 2.1224390764255528e+04 1.1040523837895065e-14 9.5485325599489188e+03 1.3725871743323125e+04 5.2633258183645944e+02 -999 2.79787096e-01 3.409544669e-01 -1.15629285e-01
 36 1 52831 1.1531366402258021e+04 2.0146187627816635e+04 1.0794091953017493e-14 8.8659140225006504e+03 1.2067438885603897e+04 4.4846466272382469e+02 -999 2.79972609e-01 3.375557299e-01 -1.15679029e-01
 37 1 52831 9.7140114144116669e+03 1.8985914334105848e+04 1.0481383889739605e-14 8.0820223824398308e+03 1.0137257068450157e+04 3.8723079866810571e+02 -999 2.80190193e-01 3.332607762e-01 -1.15729857e-01
 38 1 52831 8.2725470871954512e+03 1.7802306618158185e+04 1.0085665469618269e-14 7.2657715819108962e+03 8.5346597032148711e+03 3.4018096155414031e+02 -999 2.80432818e-01 3.279904863e-01 -1.15775150e-01
 39 1 52831 7.5186951917608385e+03 1.6805939738243778e+04 9.7043535191463320e-15 6.5914986502090260e+03 7.7702803133547532e+03 3.0467659895143328e+02 -999 2.80656896e-01 3.225044386e-01 -1.15803846e-01
 40 1 52831 7.1147886087604857e+03 1.5993567644686824e+04 9.3482737684344338e-15 6.0726107505620712e+03 7.4700916184399157e+03 2.7728141556527987e+02 -999 2.80847682e-01 3.172349540e-01 -1.15816903e-01
 41 1 52831 6.4682023777992345e+03 1.5063748155869171e+04 8.9372198890554161e-15 5.5623070149871555e+03 6.9388987859297358e+03 2.4737430111712061e+02 -999 2.80972364e-01 3.107131902e-01 -1.15717558e-01
 42 1 52831 5.9390741038454198e+03 1.4021934351726353e+04 8.4141028527809890e-15 5.0591987524592114e+03 6.5590194640036016e+03 2.2931009941401510e+02 -999 2.81162954e-01 3.021826150e-01 -1.15573638e-01
 43 1 52831 5.7021046933033522e+03 1.3030709194150551e+04 7.8449937894967129e-15 4.6985126636543782e+03 6.4785908818802836e+03 2.2024761061857728e+02 -999 2.81454889e-01 2.923155090e-01 -1.15409729e-01
 44 1 52831 5.6549832234455571e+03 1.2285382280452575e+04 7.3863790868920846e-15 4.4504560873457976e+03 6.5505415086723251e+03 2.1334676826622865e+02 -999 2.81914231e-01 2.832281234e-01 -1.15270004e-01
 45 1 52831 5.7246206587326806e+03 1.1622936292076360e+04 6.9855668423325412e-15 4.3686308600780312e+03 6.6999585680231430e+03 2.0980938869043484e+02 -999 2.82555811e-01 2.736288660e-01 -1.15187829e-01
 46 1 52831 5.7255860518198624e+03 1.0815684836558929e+04 6.4935270236870524e-15 4.3223317047208839e+03 6.7135645938443940e+03 2.0784039538747564e+02 -999 2.83651648e-01 2.607398553e-01 -1.15218049e-01
 47 1 52831 5.7942983121020798e+03 9.8440803406869927e+03 5.9297735699668460e-15 4.3852006978200789e+03 6.7261395600325668e+03 2.2161723293270126e+02 -999 2.85587420e-01 2.420571987e-01 -1.15620287e-01
 48 1 52831 5.8392078618366086e+03 9.0116919880093283e+03 5.4006767063650605e-15 4.4415925937097263e+03 6.6590263152405550e+03 2.4581598067133157e+02 -999 2.87944415e-01 2.208084220e-01 -1.16789533e-01
 49 1 52831 5.7322448958073501e+03 8.5150423076127281e+03 4.9992636270848569e-15 4.3549306349739754e+03 6.4276739784162528e+03 2.7763995344321950e+02 -999 2.89690755e-01 2.001680577e-01 -1.18821193e-01
 50 1 52831 5.4435973480005832e+03 8.4440796350010060e+03 4.6325754582773858e-15 4.1785115278548210e+03 6.0118271517122321e+03 3.8561595041232187e+02 -999 2.89987419e-01 1.807738204e-01 -1.21511936e-01
 51 1 52831 4.6839831910888533e+03 7.5854735605876849e+03 4.1288192344332966e-15 3.9008615034429799e+03 4.9877183425832145e+03 8.7559342517813980e+02 -999 2.86622751e-01 1.552841869e-01 -1.25374691e-01
 52 1 52831 4.1118895717307814e+03 7.0706229790148673e+03 3.6791787289148628e-15 3.6756239527713133e+03 4.2467914082537536e+03 1.8489109228272487e+03 -999 2.78443775e-01 1.357089080e-01 -1.27373296e-01
 53 1 52831 3.7017382343254508e+03 7.1693123814863866e+03 3.2818650072529015e-15 3.1860081151313184e+03 3.7244943565458525e+03 3.5648365120763274e+03 -999 2.67706309e-01 1.209358349e-01 -1.26811526e-01
 54 1 52831 3.5776768484993972e+03 7.5493859406754736e+03 3.0096043516065269e-15 2.6549272478603243e+03 3.4544890319208362e+03 4.5534988594192419e+03 -999 2.62094782e-01 1.145972706e-01 -1.25399147e-01
 55 1 52831 3.5509742080538549e+03 7.7584336956396337e+03 2.8621221356564842e-15 2.4045749159343977e+03 3.3180031370036158e+03 4.9133080706922356e+03 -999 2.59740470e-01 1.113446012e-01 -1.24501666e-01
 56 1 52831 2.8054262598949199e+03 6.7591822883337636e+03 2.7270072706991053e-15 2.0640251745490095e+03 2.7171682068826731e+03 4.7127525577514198e+03 -999 2.56128350e-01 1.041954935e-01 -1.22189351e-01
 57 1 52831 2.2774584910414051e+03 5.5986434333197803e+03 2.7053482434332863e-15 1.9290710810258954e+03 2.2573370630724053e+03 3.8102406743378115e+03 -999 2.58702355e-01 9.700470340e-02 -1.20498357e-01
 58 1 52831 2.1013144979314943e+03 4.4570357861444081e+03 2.7177342579002504e-15 2.2197760097451346e+03 2.0275606407689756e+03 2.7978252894286843e+03 -999 2.70334291e-01 9.171641981e-02 -1.21525932e-01
 59 1 52831 2.1338280858822891e+03 3.9085134737306262e+03 2.6501016836620240e-15 2.1607934566528470e+03 2.0800294806286370e+03 2.9692937601886770e+03 -999 2.84496314e-01 8.821373619e-02 -1.24547354e-01
 60 1 52831 2.2899516630223879e+03 3.7372718312417737e+03 2.5590691476538359e-15 1.9577297828838559e+03 2.1971705575317660e+03 3.6384001147601798e+03 -999 2.94182434e-01 8.622477799e-02 -1.27189200e-01
 61 1 52831 2.0291986369106164e+03 2.9198500603560019e+03 2.6270845732026207e-15 1.5053445234712569e+03 1.9992984390688832e+03 4.2345351539092881e+03 -999 3.28048628e-01 8.112897452e-02 -1.38664457e-01
 62 1 52831 1.7928781007774912e+03 2.3946905948569843e+03 2.6502111036434396e-15 1.3049640458891120e+03 1.7881516327873330e+03 6.3176763797269359e+03 -999 3.60840319e-01 7.688994069e-02 -1.51553829e-01
 63 1 52831 1.6685975328247409e+03 2.3760470494072019e+03 2.5867596873137794e-15 1.2097912658862174e+03 1.5922422319188101e+03 8.4878292220698149e+03 -999 3.91992580e-01 7.336651396e-02 -1.64053259e-01
 64 1 52831 1.6172135683764454e+03 2.6972292651294424e+03 2.5701609551622235e-15 1.0998317697524660e+03 1.5660438890447174e+03 1.0853494139691196e+04 -999 4.22368936e-01 7.005863598e-02 -1.74923494e-01
 65 1 52831 1.6655375907369914e+03 3.0822521805060687e+03 2.6787306510616829e-15 9.9793916214913554e+02 1.6489044533751924e+03 1.1145842824251016e+04 -999 4.54107781e-01 6.690872418e-02 -1.84240596e-01
 66 1 52831 1.1900076980335348e+03 1.7239565058209005e+03 2.5035848539448231e-15 6.9510009251815586e+02 1.1442054608050732e+03 1.0285802491769486e+04 -999 5.01968988e-01 6.368063447e-02 -1.94488119e-01
 67 1 52831 1.0880850044788347e+03 1.2378840566592812e+03 2.6234545453479480e-15 5.0094082616332747e+02 1.0497158037872246e+03 9.3910923588111946e+03 -999 5.54758958e-01 6.183420898e-02 -2.02432284e-01
 68 1 52831 1.1277335311202669e+03 1.1024755024320987e+03 2.7347853292267101e-15 4.0898981488336017e+02 1.1506192313790484e+03 7.8522915863600701e+03 -999 6.08293218e-01 6.156509183e-02 -2.07150642e-01
 69 1 52831 1.2964806559034207e+03 1.1418197366266113e+03 2.9207866769335061e-15 3.3999991269272891e+02 1.3543333277956785e+03 6.7910461255575592e+03 -999 6.50112574e-01 6.256891669e-02 -2.08326594e-01
 70 1 52831 1.5041354752728544e+03 1.4268752646049163e+03 3.2594049320469982e-15 3.0114257668080035e+02 1.6845885876099278e+03 5.9354143893376840e+03 -999 6.82272183e-01 6.394914586e-02 -2.07650681e-01
 71 1 52831 7.3484867708987542e+02 7.6099209037498713e+02 4.2553776512252372e-15 2.2354783269050523e+02 7.1546079375821887e+02 4.3252109796186369e+03 -999 7.61810275e-01 6.825377680e-02 -2.02996280e-01
 72 1 52831 5.4696228201450378e+02 6.2808361875090941e+02 4.8046146706876395e-15 1.5510601210653394e+02 5.2112528681724211e+02 3.5362367506814116e+03 -999 8.24570529e-01 7.032653333e-02 -1.95484516e-01
 73 1 52831 4.6767930936189202e+02 5.4880357680203178e+02 4.5404569541949219e-15 1.3934328118012056e+02 4.3559685845660744e+02 3.2073810789209870e+03 -999 8.73110966e-01 6.957186181e-02 -1.89564560e-01
 74 1 52831 4.1620602469016211e+02 5.6129221013021788e+02 4.6698141571811871e-15 1.3476353485730183e+02 3.8783365729093742e+02 3.1104371858209620e+03 -999 9.11477317e-01 6.603048495e-02 -1.85897309e-01
 75 1 52831 3.8691398827737891e+02 6.8254581422960803e+02 6.2971473242090264e-15 1.2267106071137162e+02 3.7225302744930309e+02 3.5355038172274158e+03 -999 9.29711828e-01 6.337847415e-02 -1.84778573e-01
 76 1 52831 3.5593094822139477e+02 1.2574267743668595e+03 2.5015072348207663e-14 1.2853645111082241e+02 3.9631583239542209e+02 1.5146599305213555e+04 -999 9.52698695e-01 6.138454845e-02 -1.83521843e-01
 77 1 52831 3.4209241009632905e+02 9.9244589636885871e+02 3.5815434382006254e-14 1.2879697482792852e+02 3.4314544599800365e+02 2.2492607336612211e+04 -999 9.72814159e-01 5.962305282e-02 -1.81666803e-01
 78 1 52831 3.4101673639940134e+02 6.2009825464564733e+02 4.5746294581837619e-14 1.1918390989516514e+02 3.1428657342987083e+02 2.7786703412217426e+04 -999 9.90154001e-01 5.806773273e-02 -1.79810040e-01
 79 1 52831 3.4288806747971836e+02 7.7499498268336117e+02 5.0686026747267374e-14 1.1394115298753502e+02 3.1784538556380613e+02 2.4215366304676550e+04 -999 1.00549111e+00 5.671228613e-02 -1.78238370e-01
 80 1 52831 3.4505351828688208e+02 7.9496596050661424e+02 5.1581313331133740e-14 1.1219790678128993e+02 3.1648920467714112e+02 1.3192465132218113e+04 -999 1.00869390e+00 5.638968017e-02 -1.77791324e-01
 81 1 52831 3.2581568006537356e+02 8.8204334696144224e+02 7.8623885601052913e-14 1.2169546052873896e+02 3.0053703969718282e+02 7.4925001483891856e+03 -999 1.01416619e+00 5.609354459e-02 -1.77551804e-01
 82 1 52831 3.2581568006537350e+02 1.0146189367059968e+03 7.8625792346303830e-14 1.2280215059972362e+02 3.0482559723932042e+02 5.6996856828175896e+03 -999 1.01416619e+00 5.609354459e-02 -1.77551804e-01
 83 1 52831 3.3050223048648292e+02 1.1784992267301291e+03 7.8713310775880266e-14 1.3249297205446302e+02 3.1458218354242086e+02 5.9751460637624905e+03 -999 1.01704017e+00 5.593250552e-02 -1.77313197e-01
 84 1 52831 3.7554224469908291e+02 4.9128726973213736e+02 4.5464320904175464e-14 1.2299297313514634e+02 3.4115029309023402e+02 3.7812091661178715e+03 -999 1.01984710e+00 5.547243460e-02 -1.77055261e-01
 85 1 52831 4.4763550795912812e+02 3.8337879490826606e+02 2.3600232419502580e-14 1.1493076197563919e+02 4.0919768326125069e+02 5.7864650385527120e+03 -999 1.02365614e+00 5.481259837e-02 -1.76585729e-01
 86 1 52831 4.5539633776511442e+02 3.5892626517175137e+02 1.5492499139871135e-14 1.1035572751583121e+02 4.1364207883067826e+02 4.2364507919796824e+03 -999 1.02609086e+00 5.441189039e-02 -1.76245775e-01
 87 1 52831 4.7824384261059606e+02 3.4119351401728704e+02 9.7603431625283234e-15 1.0721612331859225e+02 4.3526230415923874e+02 4.4106897226005731e+03 -999 1.02883528e+00 5.393488880e-02 -1.75748436e-01
 88 1 52831 4.9958984389491206e+02 3.3108824502308397e+02 6.7793876771848973e-15 1.0200948962522362e+02 4.6063880142628307e+02 4.4169289164471311e+03 -999 1.03124127e+00 5.352015542e-02 -1.75231006e-01
 89 1 52831 4.8276240529031924e+02 3.2259093576658290e+02 4.8624375440595625e-15 9.6400626638703471e+01 4.4491833430930916e+02 4.3651126682597915e+03 -999 1.03407097e+00 5.309051587e-02 -1.74664201e-01
 90 1 52831 5.2240544105180470e+02 3.2219055325595286e+02 4.0709128840586120e-15 9.5209973117073062e+01 4.8038389092829186e+02 4.3339304814962070e+03 -999 1.03568109e+00 5.287479476e-02 -1.74330072e-01
 91 1 52831 4.9292127956750056e+02 3.1112155090301167e+02 2.5427133246843719e-14 8.9164465482384784e+01 4.5239358780006381e+02 4.4143476410442390e+03 -999 1.03849000e+00 5.253730545e-02 -1.73793723e-01
 92 1 52831 4.5127771065166763e+02 3.0250084806690586e+02 4.2771711790584237e-14 8.5640541604636368e+01 4.0805178414018570e+02 4.5746827523537941e+03 -999 1.04267906e+00 5.217142097e-02 -1.73159029e-01
 93 1 52831 5.1938520883683054e+02 3.0767476867353395e+02 4.5527170530308759e-14 8.1374787451275864e+01 4.7933786620746110e+02 4.6459573914848770e+03 -999 1.04682947e+00 5.188122211e-02 -1.72499554e-01
 94 1 52831 4.3010317371526457e+02 2.9936317450252398e+02 4.2310535990856524e-14 7.8304582965114875e+01 3.8698770056546311e+02 4.6236711467008881e+03 -999 1.05038783e+00 5.176322259e-02 -1.72155525e-01
 95 1 52831 5.1560166584117758e+02 3.1078892302145533e+02 3.7026802395150843e-14 7.9641485363328911e+01 4.6983984975883061e+02 4.7331681052596414e+03 -999 1.05444871e+00 5.163910037e-02 -1.71739461e-01
 96 1 52831 4.3561233174522664e+02 2.9888097140447479e+02 7.9588508911579928e-14 7.3931447927860006e+01 3.8890547704335665e+02 4.5153086538621355e+03 -999 1.05763770e+00 5.160212860e-02 -1.71565973e-01
 97 1 52831 4.1821365401284874e+02 2.9593796918288172e+02 1.4410099395041914e-13 7.1696964372823345e+01 3.6543927086011956e+02 4.6242428540662613e+03 -999 1.06267894e+00 5.161849956e-02 -1.71556078e-01
 98 1 52831 4.0187065067335050e+02 2.9000505094752964e+02 1.6169967264238268e-13 6.9880775668353081e+01 3.5271707766569125e+02 4.6550559187932522e+03 -999 1.06820382e+00 5.167400448e-02 -1.71722229e-01
 99 1 52831 3.8830477647208619e+02 2.8196064379353618e+02 1.6329562929577780e-13 6.8771908589700843e+01 3.3633785607557229e+02 4.2037950604023908e+03 -999 1.07105805e+00 5.174049237e-02 -1.71957845e-01
 100 1 52831 3.9197871901766007e+02 2.7875121130590105e+02 1.7422356061980168e-13 6.7378704591434641e+01 3.4336506192006976e+02 4.1309296870461667e+03 -999 1.07351602e+00 5.177000731e-02 -1.72119321e-01
 101 1 52831 3.3644221187653562e+02 2.6599170384385269e+02 1.0787958841881710e-13 6.5019711901316043e+01 2.8848741213869846e+02 4.3142418203363413e+03 -999 1.07662950e+00 5.170937041e-02 -1.72099575e-01
 102 1 52831 3.1600010774893263e+02 2.5667070829625544e+02 8.7361112407530234e-14 6.1843215911628789e+01 2.7044939234315655e+02 4.2312950643115537e+03 -999 1.07943327e+00 5.166768225e-02 -1.72144073e-01
 103 1 52831 2.8178625642391609e+02 2.5233589099707311e+02 7.9282603735511463e-14 5.9784378876844720e+01 2.3851709407121587e+02 4.5773855465346160e+03 -999 1.08264786e+00 5.162875209e-02 -1.72255484e-01
 104 1 52831 2.5284997419084803e+02 2.4171720480790384e+02 7.2927921466826629e-14 5.8016248864582778e+01 2.1075039326821681e+02 5.1289516774579106e+03 -999 1.08456859e+00 5.164895641e-02 -1.72443934e-01
 105 1 52831 2.2801954365343298e+02 2.3727462473614193e+02 6.9214939820872392e-14 5.6279473614946689e+01 1.8746931866573465e+02 5.2892675408406412e+03 -999 1.08599277e+00 5.166798100e-02 -1.72603852e-01
 106 1 52831 1.6204067116151560e+02 2.4831081093845648e+02 4.8540313724835068e-14 6.7049527999348797e+01 1.2810788506492779e+02 9.0397400141941816e+03 -999 1.09225802e+00 5.202592257e-02 -1.73842446e-01
 107 1 52831 1.2779638585622824e+02 2.3807074238829929e+02 4.5762865091165247e-14 7.0664058501309341e+01 9.6236529133279419e+01 7.9186513555009051e+03 -999 1.09809460e+00 5.242364512e-02 -1.75177600e-01
 108 1 52831 1.1169749532156025e+02 2.3402138882555090e+02 4.6070750398010780e-14 7.2232299485733947e+01 8.1224097614834989e+01 7.3910454756077106e+03 -999 1.10310545e+00 5.277567755e-02 -1.76405724e-01
 109 1 52831 1.0338311482004652e+02 2.3175202241622364e+02 3.8330524709628340e-14 6.9526368704959239e+01 7.2893553786025777e+01 8.5895144213904277e+03 -999 1.10783474e+00 5.314184453e-02 -1.77564404e-01
 110 1 52831 9.4967331057933166e+01 2.3044857792144612e+02 3.0279239611387765e-14 6.5593383262763268e+01 6.6151237715468554e+01 9.8230080812077322e+03 -999 1.11068759e+00 5.328764070e-02 -1.78008578e-01
 111 1 52831 9.4284491186945232e+01 2.3107943469570242e+02 1.1326046400827127e-13 6.4777843462603855e+01 6.2981794856913410e+01 1.0075018929490181e+04 -999 1.11397600e+00 5.370524394e-02 -1.78978790e-01
 112 1 52831 9.9271901713379236e+01 2.2952897794698745e+02 1.4532250391058827e-13 6.7155102836117621e+01 6.9537060851671271e+01 1.0795847201216940e+04 -999 1.11702769e+00 5.411551284e-02 -1.79909465e-01
 113 1 52831 1.0264262883011061e+02 2.3586088060327327e+02 2.0276020315022083e-13 7.0088947723943463e+01 7.4598317755369450e+01 1.2752253764727167e+04 -999 1.11779791e+00 5.416270905e-02 -1.79824230e-01
 114 1 52831 1.0372250064493285e+02 2.2226830228864512e+02 2.0696001773926382e-13 7.6240073810008525e+01 7.6201922438408317e+01 1.2132666874599332e+04 -999 1.11715294e+00 5.396395475e-02 -1.79088788e-01
 115 1 52831 1.0935520267377460e+02 2.1599857109131071e+02 2.4880479433169245e-13 7.0048225216941034e+01 8.2804233332156770e+01 1.1404594895765053e+04 -999 1.11530103e+00 5.356061658e-02 -1.77755082e-01
 116 1 52831 9.8872418269339732e+01 2.0333499935584109e+02 1.5024336690060083e-13 6.9475248243445918e+01 6.9421785230582103e+01 1.3367973718349389e+04 -999 1.11412052e+00 5.336131945e-02 -1.76861647e-01
 117 1 52831 9.3095144692660853e+01 1.8735787256740426e+02 1.5503402029629129e-13 6.4921589886067949e+01 6.6072046789183659e+01 1.3143425774997493e+04 -999 1.11286363e+00 5.322116994e-02 -1.76013147e-01
 118 1 52831 9.9246395667786331e+01 1.7696427855637268e+02 1.5512755229577185e-13 5.0923588436834024e+01 7.2758870564355021e+01 1.5364319064169618e+04 -999 1.10998039e+00 5.278476479e-02 -1.74359476e-01
 119 1 52831 9.4347661460072331e+01 1.7072017430265464e+02 1.4237051857823716e-13 4.9603179597513339e+01 6.7951009068741428e+01 1.5236796548869272e+04 -999 1.10727138e+00 5.244176093e-02 -1.72996471e-01
 120 1 52831 9.6100516824192738e+01 1.6229295091008896e+02 1.2500225890416135e-13 4.5473654159714862e+01 7.3349138798882421e+01 1.6738956869872469e+04 -999 1.10381284e+00 5.204083624e-02 -1.71524271e-01
 121 1 52831 9.0002424188827703e+01 1.6212470154812451e+02 1.2149963611989633e-13 5.1233848471973985e+01 6.9630634916323842e+01 1.8013354219782184e+04 -999 1.10211090e+00 5.188894020e-02 -1.71021376e-01
 122 1 52831 9.0261217337525423e+01 1.5865370090562897e+02 1.1791156705380913e-13 5.3878401266858369e+01 7.3237471784628653e+01 1.6010504775625866e+04 -999 1.09894399e+00 5.148950873e-02 -1.69932173e-01
 123 1 52831 9.4737746723855238e+01 1.4840367726337865e+02 1.2633627253175181e-13 4.7052777664262557e+01 7.6786818396069179e+01 1.7151060193298927e+04 -999 1.09582204e+00 5.113454230e-02 -1.68848771e-01
 124 1 52831 1.0310025641456858e+02 1.4924819618322553e+02 1.2701112350467263e-13 4.7994485709553736e+01 8.4907098616861447e+01 1.9317736638461709e+04 -999 1.09274663e+00 5.076665756e-02 -1.67793289e-01
 125 1 52831 1.0767512470703511e+02 1.5925096545029226e+02 1.2397588001647268e-13 4.9699929718594589e+01 8.9824295576805639e+01 1.9288078677600250e+04 -999 1.09016488e+00 5.044077904e-02 -1.66872888e-01
 126 1 52831 1.0032166690396605e+02 1.3845087197075338e+02 9.2254441686228006e-14 4.1977258704027136e+01 8.4738297316836523e+01 1.7370884962218315e+04 -999 1.08774421e+00 5.015555835e-02 -1.66054917e-01
 127 1 52831 9.8193724237786725e+01 1.3279291395096590e+02 1.0823120213698702e-13 4.1296482197263053e+01 8.4543218839985855e+01 1.7677691785309959e+04 -999 1.08465632e+00 4.977634302e-02 -1.64967318e-01
 128 1 52831 9.9322132089700617e+01 1.3076474269371153e+02 1.1201307333589178e-13 3.9875802691055647e+01 8.5823778713063831e+01 1.8378578733936673e+04 -999 1.08118458e+00 4.934163482e-02 -1.63703069e-01
 129 1 52831 1.0908570558696944e+02 1.3649336449282305e+02 1.0189882674188954e-13 3.9011163542943699e+01 9.4624097126910314e+01 1.7911791353204124e+04 -999 1.07806962e+00 4.893610046e-02 -1.62538712e-01
 130 1 52831 1.0880694078824253e+02 1.2666594103041059e+02 9.7485574638058277e-14 3.5550488006833085e+01 9.3494989723354834e+01 1.5683163394660272e+04 -999 1.07549450e+00 4.860758777e-02 -1.61580223e-01
 131 1 52831 9.6614010508495809e+01 1.2224042700176651e+02 1.9723850391630511e-13 3.4133352721697655e+01 8.2747989919074826e+01 1.7085329415217453e+04 -999 1.07323267e+00 4.833021117e-02 -1.60763981e-01
 132 1 52831 9.1868345131907304e+01 1.1566186268293072e+02 3.2245682793995207e-13 3.0700723290327602e+01 7.9064247964296243e+01 1.6564106193544809e+04 -999 1.07032160e+00 4.798075507e-02 -1.59721019e-01
 133 1 52831 9.2467989766885594e+01 1.1058103017702797e+02 3.9587041707556167e-13 2.9290105504136417e+01 8.0505324099909870e+01 1.7036712516645279e+04 -999 1.06723968e+00 4.761716026e-02 -1.58624321e-01
 134 1 52831 9.8205238867186168e+01 1.1050474957730192e+02 4.2495872273881593e-13 2.9635735842847421e+01 8.6486796959635683e+01 1.4903777028624138e+04 -999 1.06459199e+00 4.727659961e-02 -1.57660803e-01
 135 1 52831 1.0203465461899162e+02 1.1491624853107690e+02 4.3406596572287316e-13 2.9282393077648933e+01 9.0609814592139998e+01 1.4487803977896157e+04 -999 1.06200868e+00 4.693111292e-02 -1.56720183e-01
 136 1 52831 8.6587141592691452e+01 1.0095055876007119e+02 3.0399607255241924e-13 2.8753746015277038e+01 7.9306958970459661e+01 1.8051444165143115e+04 -999 1.05928655e+00 4.656618005e-02 -1.55754138e-01
 137 1 52831 8.3527424747060351e+01 9.5441861564747470e+01 2.4939642499527747e-13 2.7815714253329723e+01 7.6680063824717280e+01 1.3093475281142986e+04 -999 1.05632789e+00 4.617372095e-02 -1.54723465e-01
 138 1 52831 9.6410715050519315e+01 1.0786458347054710e+02 2.7725464739824804e-13 3.0387383482741697e+01 8.8314213694742548e+01 1.8499431379370162e+04 -999 1.05244993e+00 4.566116804e-02 -1.53378413e-01
 139 1 52831 9.6792640816070318e+01 1.0098184578141749e+02 2.5892971213433278e-13 2.9265113968248620e+01 8.6983752314291976e+01 1.2481055906293512e+04 -999 1.05030665e+00 4.537996606e-02 -1.52646908e-01
 140 1 52831 1.0338172168114474e+02 1.1189774875308902e+02 2.5796498696050542e-13 2.8345892888837948e+01 9.3383869658851879e+01 1.4010368254015259e+04 -999 1.04839173e+00 4.512503468e-02 -1.51990838e-01
 141 1 52831 8.8589527777053803e+01 9.8080232991164067e+01 2.5869146700757824e-13 2.8794770842314673e+01 8.1849023565425298e+01 1.2962158586596586e+04 -999 1.04609280e+00 4.484269821e-02 -1.51279461e-01
 142 1 52831 8.4661404693470530e+01 9.1048582513011297e+01 3.2744248467893070e-13 2.8829789256222156e+01 7.9061885837526802e+01 1.1941942027760550e+04 -999 1.04410223e+00 4.461620431e-02 -1.50733223e-01