TITLE = "005.01 ALPHA 3.50 GRIDLEVEL 3"

VARIABLES = "ITERATION"  "GRID_LEVEL"  "GRID_SIZE"  "CONTINUITY"  "MOMENTUMX"  "MOMENTUMY"  "MOMENTUMZ"  "ENERGY"  "TURB1"  "TURB2"  "CL_TOT"  "CD_TOT"  "CM_TOT"

DATASETAUXDATA ParticipantID   = "005"
DATASETAUXDATA SubmissionDate  = "10-31-2024"
DATASETAUXDATA Name            = "Jeffrey A. Housman"
DATASETAUXDATA Email           = "jeffrey.a.housman@nasa.gov"
DATASETAUXDATA Institution     = "NASA Ames Research Center"
DATASETAUXDATA SolverName      = "LAVA Curvilinear"
DATASETAUXDATA BasicAlgorithm  = "RANS"
DATASETAUXDATA TurbulenceModel = "SA-neg"
DATASETAUXDATA GridId          = "Multiblock"
DATASETAUXDATA Discretization  = "Finite difference"
DATASETAUXDATA Order           = "2"
DATASETAUXDATA DistanceCalc    = "Exact"
DATASETAUXDATA Notes           = " "

ZONE T = "005.01 - Alpha 3.50 - Grid Level 3"
AUXDATA Tstatic         = "271.0"
AUXDATA Deltat          = "-999"
AUXDATA GridFileName    = "ONERA-OAT15A_230mmChord_780mmSpan_upZ_2024_06_25-Structured_23mm_Level-3.x"
AUXDATA Misc            = " "
 0 3 234820 2.7151982306820917e+05 6.5140068741725478e+05 4.4403398944960637e-14 2.5021642526788177e+05 2.7886841717809677e+05 9.8392253180779750e+05 -999 1.17241176e-02 6.041659042e-01 -7.67419346e-03
 1 3 234820 3.8182519501642621e+05 5.0939892311755178e+05 3.9161366596255638e-14 2.0159368544841235e+05 3.7069215931255149e+05 6.3830550482493662e+05 -999 5.28244475e-02 5.787629957e-01 -2.42534397e-02
 2 3 234820 4.6169909844532103e+05 4.4897645126345806e+05 3.5235960762253294e-14 2.2369477020339877e+05 4.4242507865309785e+05 4.1465556337808521e+05 -999 9.91535353e-02 5.703416722e-01 -4.24758229e-02
 3 3 234820 5.4092278601068375e+05 4.0971651508991205e+05 3.2202153704566632e-14 2.6194598752428041e+05 5.1732702578926977e+05 2.6888424317235203e+05 -999 1.39737281e-01 5.691009255e-01 -5.91574377e-02
 4 3 234820 6.1731035931152583e+05 3.7844148730900127e+05 2.9821999782977252e-14 3.0810324481458840e+05 5.9537837589484674e+05 1.7144781468574074e+05 -999 1.75052150e-01 5.722628003e-01 -7.22326427e-02
 5 3 234820 6.9196082436599280e+05 3.8142999854744028e+05 2.7969490453005180e-14 3.5873744995798188e+05 6.7858459980685904e+05 9.3209883561155497e+04 -999 2.02644045e-01 5.766578599e-01 -8.19465517e-02
 6 3 234820 6.3787667825942859e+05 4.2527234005138947e+05 2.6578301467283012e-14 3.8101807402133266e+05 6.2785128871795745e+05 6.6435240812972435e+04 -999 2.21594332e-01 5.742865594e-01 -8.92539051e-02
 7 3 234820 6.5255276065519021e+05 4.4546234947413392e+05 2.5311804789106700e-14 3.9668274566448963e+05 6.3813025232002640e+05 5.3331458528876727e+04 -999 2.36756642e-01 5.677842916e-01 -9.56365162e-02
 8 3 234820 7.0881819865405746e+05 4.4535261639727728e+05 2.4431404749105502e-14 4.0372655397527746e+05 7.1177783463199425e+05 4.5636966320997526e+04 -999 2.48351708e-01 5.573705935e-01 -1.00446059e-01
 9 3 234820 8.2435586116064980e+05 4.6405950263342052e+05 2.3808459847485717e-14 4.3513388135724585e+05 8.4579864402286022e+05 4.0502167697450619e+04 -999 2.60080556e-01 5.433758016e-01 -1.04832099e-01
 10 3 234820 8.1026205320877954e+05 4.2418625255505781e+05 2.3425075516923106e-14 4.1980718807028671e+05 8.3950462291424314e+05 3.6421749963682749e+04 -999 2.66952519e-01 5.343985701e-01 -1.07256927e-01
 11 3 234820 7.1478366642553499e+05 3.8947859143036674e+05 2.2920589705898783e-14 4.0325588142479490e+05 7.2521067298573616e+05 3.2975064108757317e+04 -999 2.75476336e-01 5.226087351e-01 -1.10384559e-01
 12 3 234820 6.7311910574945237e+05 4.0332229452394362e+05 2.2490223842082900e-14 3.8852353794504405e+05 6.7938146564983146e+05 3.0103144573819816e+04 -999 2.81743884e-01 5.134229947e-01 -1.12648527e-01
 13 3 234820 7.0792787530794495e+05 3.7931994519459916e+05 2.2116917243741606e-14 3.9028178846024617e+05 7.1778801714590937e+05 2.7724664554004339e+04 -999 2.87642223e-01 5.040235982e-01 -1.14770621e-01
 14 3 234820 6.9478263912708242e+05 3.6383674618603312e+05 2.1829693585308294e-14 3.7083816883220768e+05 7.1492071291483438e+05 2.5746993175918895e+04 -999 2.90941652e-01 4.979248029e-01 -1.16005800e-01
 15 3 234820 7.3853518680751929e+05 3.9683003444148874e+05 2.1578762395440049e-14 3.8539685135580815e+05 7.6579537587640912e+05 2.4093685122338065e+04 -999 2.94228843e-01 4.912075441e-01 -1.17321045e-01
 16 3 234820 6.6119949825760687e+05 3.8610861262644298e+05 2.1315037253333057e-14 3.5755313633569889e+05 6.8943769896708662e+05 2.2155358941526905e+04 -999 2.96416805e-01 4.859019380e-01 -1.18266524e-01
 17 3 234820 5.7195796165601688e+05 3.1734975680829183e+05 2.1007907194871768e-14 3.2592629245672934e+05 5.8288561600827670e+05 2.0501542726451928e+04 -999 2.98891855e-01 4.793655273e-01 -1.19344524e-01
 18 3 234820 5.6857081387805822e+05 3.2730227680240979e+05 2.0746142839345151e-14 3.1685719170294091e+05 5.7889196608806460e+05 1.9114291992046434e+04 -999 3.01034620e-01 4.729864553e-01 -1.20249380e-01
 19 3 234820 5.8484574638662010e+05 2.9762470795745653e+05 2.0552651466696941e-14 3.1281369199996779e+05 5.9605758583145507e+05 1.7893338259229258e+04 -999 3.02755971e-01 4.671886750e-01 -1.20923889e-01
 20 3 234820 6.0263120481960650e+05 3.0174870258964790e+05 2.0437508130702078e-14 3.0282289980583399e+05 6.2980453888458363e+05 1.6803853997628023e+04 -999 3.03928933e-01 4.627455131e-01 -1.21341608e-01
 21 3 234820 5.0872894559420837e+05 2.7126680697343923e+05 2.0233380523004891e-14 2.7930278370637720e+05 5.2897731914161588e+05 1.5551869007660824e+04 -999 3.05104223e-01 4.574359873e-01 -1.21723069e-01
 22 3 234820 4.5888393777410628e+05 2.6631352511617373e+05 2.0032104431365028e-14 2.6274412286293291e+05 4.6778348347171157e+05 1.4474465023965480e+04 -999 3.06199424e-01 4.521067712e-01 -1.22054604e-01
 23 3 234820 4.6543138245860493e+05 2.5185075147015986e+05 1.9837847699794786e-14 2.5397768874548507e+05 4.7130047624246264e+05 1.3530647634627499e+04 -999 3.07323118e-01 4.462291669e-01 -1.22378699e-01
 24 3 234820 4.6265856486824522e+05 2.4341642223628412e+05 1.9705786561858190e-14 2.4406791514855524e+05 4.7777782412100071e+05 1.2723868743908066e+04 -999 3.08055084e-01 4.420134803e-01 -1.22583820e-01
 25 3 234820 5.3991824562213954e+05 3.0136997499133251e+05 1.9575310440289344e-14 2.5739036400443054e+05 5.7372585792905430e+05 1.2008077725617080e+04 -999 3.08824140e-01 4.372470218e-01 -1.22801518e-01
 26 3 234820 4.4066171787501522e+05 2.6720649751626101e+05 1.9352181060341412e-14 2.2855951084941239e+05 4.7142362590244046e+05 1.1166746586457004e+04 -999 3.09348714e-01 4.331909193e-01 -1.22947592e-01
 27 3 234820 3.6815306002229970e+05 2.1800211766100081e+05 1.9119179152721257e-14 2.0592510326898735e+05 3.8161894388942199e+05 1.0413409828370333e+04 -999 3.09884041e-01 4.288224526e-01 -1.23101246e-01
 28 3 234820 3.5418767760763707e+05 2.0416783341464098e+05 1.8902279709661987e-14 1.9376344960325825e+05 3.5846279473207693e+05 9.7434151490785480e+03 -999 3.10418398e-01 4.241849244e-01 -1.23258570e-01
 29 3 234820 3.6913668909663416e+05 2.0200053724234164e+05 1.8759650611109109e-14 1.8812951819433874e+05 3.8415256662050524e+05 9.1652385090828466e+03 -999 3.10809346e-01 4.205700113e-01 -1.23376069e-01
 30 3 234820 4.2830678353971196e+05 2.4627434322901498e+05 1.8635459983404676e-14 1.9607893803565958e+05 4.5747652619401913e+05 8.6468087270576289e+03 -999 3.11206712e-01 4.167454602e-01 -1.23497055e-01
 31 3 234820 3.5252216923449532e+05 2.2071425768994188e+05 1.8430131405319543e-14 1.7518103826798048e+05 3.8171602783935552e+05 7.9967787957146174e+03 -999 3.11468802e-01 4.136324548e-01 -1.23571872e-01
 32 3 234820 2.8275210351705062e+05 1.7911608226249798e+05 1.8180280413712960e-14 1.5439470351896531e+05 3.0025062733626075e+05 7.4238607999645374e+03 -999 3.11771893e-01 4.099970239e-01 -1.23657970e-01
 33 3 234820 2.5376545194067774e+05 1.5791877709514895e+05 1.7922514907453470e-14 1.3980563817347918e+05 2.5833573376240052e+05 6.9120132968589387e+03 -999 3.12100977e-01 4.059877252e-01 -1.23750390e-01
 34 3 234820 2.6963907719527360e+05 1.5438051008555829e+05 1.7719414295347769e-14 1.3469601819423490e+05 2.7779915790716046e+05 6.4578647989362162e+03 -999 3.12392694e-01 4.023632739e-01 -1.23831749e-01
 35 3 234820 2.7808347919485410e+05 1.5554355484551165e+05 1.7586327797306203e-14 1.3143805071110395e+05 2.9362023646034882e+05 6.0631800844009722e+03 -999 3.12610159e-01 3.996141304e-01 -1.23892697e-01
 36 3 234820 2.3624307378894079e+05 1.3876393897113029e+05 1.7381223574332910e-14 1.1938239439175524e+05 2.5293840359950432e+05 5.5262701955060920e+03 -999 3.12799066e-01 3.967527065e-01 -1.23941330e-01
 37 3 234820 1.9166656804007516e+05 1.2566584711678379e+05 1.7130339273797699e-14 1.0622888169999911e+05 2.0377913594924723e+05 5.0598021073693799e+03 -999 3.13019541e-01 3.934510215e-01 -1.23998511e-01
 38 3 234820 1.6690466217603223e+05 1.1185727487875440e+05 1.6849870983776208e-14 9.4492286611309653e+04 1.7092516606831754e+05 4.6576772009653523e+03 -999 3.13266263e-01 3.897988323e-01 -1.24063020e-01
 39 3 234820 1.7339841470538912e+05 1.0879550812201726e+05 1.6603160773446881e-14 8.8190907743763542e+04 1.7810345970877787e+05 4.3100565722672063e+03 -999 3.13500203e-01 3.863703588e-01 -1.24124885e-01
 40 3 234820 1.8360156587084944e+05 1.0905807854249679e+05 1.6409304279168290e-14 8.5431774462423389e+04 1.9201734303081123e+05 4.0053355699971548e+03 -999 3.13700716e-01 3.834378226e-01 -1.24179006e-01
 41 3 234820 1.5549130302721736e+05 1.0019214758727500e+05 1.6187505116080680e-14 7.7347478819637006e+04 1.6670564720099742e+05 3.6104184095023525e+03 -999 3.13857208e-01 3.807925160e-01 -1.24217892e-01
 42 3 234820 1.2216075808946583e+05 9.0194652898276370e+04 1.5913503028396590e-14 6.7919153063940641e+04 1.3154723914140480e+05 3.2701273132921174e+03 -999 3.14049805e-01 3.776081328e-01 -1.24266808e-01
 43 3 234820 1.0113419591933145e+05 8.1068556016089133e+04 1.5593108005710105e-14 5.9205189504308357e+04 1.0497572043875647e+05 2.9799916741377920e+03 -999 3.14273044e-01 3.740011844e-01 -1.24325222e-01
 44 3 234820 1.0030913080806987e+05 7.7551816628009095e+04 1.5315616063363884e-14 5.4118478851240056e+04 1.0364836006012707e+05 2.7317041558635269e+03 -999 3.14483867e-01 3.706582574e-01 -1.24382811e-01
 45 3 234820 1.0399527604103570e+05 7.7625898552732862e+04 1.5083237653819825e-14 5.1297463097710010e+04 1.0976428860219344e+05 2.5188909059891735e+03 -999 3.14668716e-01 3.677508942e-01 -1.24436165e-01
 46 3 234820 8.8657035463060995e+04 7.1036275128761205e+04 1.4853339536053994e-14 4.6868732128043332e+04 9.5639426564123860e+04 2.2250100454572857e+03 -999 3.14811987e-01 3.651646702e-01 -1.24476361e-01
 47 3 234820 7.0840407620091035e+04 6.4706804118402957e+04 1.4564237282640621e-14 4.1835434822559371e+04 7.7349832486059953e+04 1.9867940794273209e+03 -999 3.14984513e-01 3.621037982e-01 -1.24526271e-01
 48 3 234820 5.6952130376865876e+04 5.8967171213320835e+04 1.4216199479935611e-14 3.6750866028349039e+04 6.1024956340349017e+04 1.7795846895103700e+03 -999 3.15191249e-01 3.584905077e-01 -1.24588697e-01
 49 3 234820 5.1869677910283921e+04 5.5557256936410573e+04 1.3895536212429551e-14 3.3160515615502693e+04 5.4340177654537969e+04 1.5984914156882076e+03 -999 3.15393947e-01 3.549774505e-01 -1.24654089e-01
 50 3 234820 4.9890365717038520e+04 5.3565470601123452e+04 1.3609850953914295e-14 3.0739725007228470e+04 5.2287195302974935e+04 1.4637323430295116e+03 -999 3.15575593e-01 3.518185742e-01 -1.24717886e-01
 51 3 234820 4.3497434022574176e+04 5.0762829935762289e+04 1.3356987979037742e-14 2.8463274730643592e+04 4.6167244630861336e+04 1.2717803885610349e+03 -999 3.15715049e-01 3.490433934e-01 -1.24758135e-01
 52 3 234820 3.5983916175668477e+04 4.7697719075640882e+04 1.3039007676782890e-14 2.5812144050441093e+04 3.8339801200413196e+04 1.1171670100293304e+03 -999 3.15887949e-01 3.456304068e-01 -1.24806900e-01
 53 3 234820 2.9564050287359001e+04 4.4536329690405859e+04 1.2645415176351893e-14 2.2998175581117583e+04 3.0989663147461968e+04 9.9068207295717446e+02 -999 3.16096770e-01 3.415064690e-01 -1.24864814e-01
 54 3 234820 2.6047508419258123e+04 4.1965690868662306e+04 1.2246821751699603e-14 2.0694927690872250e+04 2.6785791917218728e+04 8.9032401866336909e+02 -999 3.16304552e-01 3.373194583e-01 -1.24923015e-01
 55 3 234820 2.3853966608683793e+04 3.9946605470879680e+04 1.1922360024762883e-14 1.9078965992594647e+04 2.4247302920914106e+04 8.1060047922678416e+02 -999 3.16470913e-01 3.334710253e-01 -1.24981771e-01
 56 3 234820 2.1358479872496351e+04 3.8029309629582865e+04 1.1617392632190639e-14 1.7583540722244914e+04 2.1681188912222311e+04 7.1674329436169057e+02 -999 3.16569306e-01 3.297425839e-01 -1.24981712e-01
 57 3 234820 1.8636815786914998e+04 3.5829207871705199e+04 1.1238043283361873e-14 1.5877626212691213e+04 1.8840019071670522e+04 6.4601995323553422e+02 -999 3.16679706e-01 3.250231399e-01 -1.24968498e-01
 58 3 234820 1.6316944470018780e+04 3.3449059068062808e+04 1.0780377768772550e-14 1.4089001413404003e+04 1.6474196880969335e+04 5.9744965725054055e+02 -999 3.16798724e-01 3.191728406e-01 -1.24934564e-01
 59 3 234820 1.4914581679038920e+04 3.1387751585089594e+04 1.0338375550923126e-14 1.2644119915540645e+04 1.5245842951649607e+04 5.6399054500477860e+02 -999 3.16905326e-01 3.131871405e-01 -1.24883303e-01
 60 3 234820 1.4087291784713314e+04 2.9694097170109515e+04 9.9432938224863144e-15 1.1577409092965059e+04 1.4709615919208894e+04 5.3933018276652012e+02 -999 3.17002863e-01 3.074193452e-01 -1.24824134e-01
 61 3 234820 1.2988632959634489e+04 2.7846060549391015e+04 9.5415952906497638e-15 1.0601698961990865e+04 1.3969968139573695e+04 5.0824833912144123e+02 -999 3.17053240e-01 3.004109825e-01 -1.24669809e-01
 62 3 234820 1.2221860177703455e+04 2.5774876317440070e+04 9.0269720868910231e-15 9.7933603556838734e+03 1.3604496992389657e+04 5.0631945168774087e+02 -999 3.17198872e-01 2.909598210e-01 -1.24471935e-01
 63 3 234820 1.2172741717188836e+04 2.3790601497683714e+04 8.5765730151897659e-15 9.4921359893594963e+03 1.3889641208505467e+04 5.3189093876024992e+02 -999 3.17536090e-01 2.793198871e-01 -1.24284377e-01
 64 3 234820 1.2634631831971945e+04 2.2268306183779438e+04 8.2301948139247199e-15 9.6734992699869581e+03 1.4529511565869279e+04 5.7492129315647617e+02 -999 3.18092419e-01 2.673391879e-01 -1.24216631e-01
 65 3 234820 1.3145070847562069e+04 2.1113672490306766e+04 8.0173433882993378e-15 9.9803787945499407e+03 1.5099825625803067e+04 6.5485783665828376e+02 -999 3.18843610e-01 2.552474008e-01 -1.24332710e-01
 66 3 234820 1.2805379067537260e+04 1.9189775620324788e+04 7.6704250003654015e-15 9.1743414646645670e+03 1.4692623654757535e+04 8.6495357473288914e+02 -999 3.20083486e-01 2.366194802e-01 -1.24966712e-01
 67 3 234820 1.2544119763279834e+04 1.8141511790025819e+04 7.3797621223401869e-15 8.6346421669115771e+03 1.4090195196121200e+04 1.8476350562564069e+03 -999 3.21744783e-01 2.106998168e-01 -1.26581114e-01
 68 3 234820 1.2066902058721602e+04 1.7998791587704542e+04 7.0548091764601280e-15 8.7221224985913868e+03 1.3039012970395315e+04 4.8193462556364311e+03 -999 3.22409389e-01 1.841828422e-01 -1.29293536e-01
 69 3 234820 1.1918702333987088e+04 1.7752976628366250e+04 6.5665710941153914e-15 8.7699325406094267e+03 1.2424767502111892e+04 7.4627349796065873e+03 -999 3.21406895e-01 1.733385371e-01 -1.30687638e-01
 70 3 234820 1.1911064216022760e+04 1.7618016949082950e+04 6.2591160082699245e-15 8.7597479503997783e+03 1.2145421158009856e+04 9.2566810310519850e+03 -999 3.20385914e-01 1.677559015e-01 -1.31346495e-01
 71 3 234820 9.8269396621007672e+03 1.4640850995528124e+04 5.7643654966847681e-15 8.0056081461742233e+03 1.0267444019542882e+04 2.5570459173572930e+04 -999 3.15357914e-01 1.505612177e-01 -1.32765939e-01
 72 3 234820 8.4440690295201439e+03 1.4122419435610958e+04 5.2623879166921677e-15 7.0666265764721202e+03 8.6211355416914485e+03 7.6232748728636667e+04 -999 3.05533836e-01 1.319120734e-01 -1.32745567e-01
 73 3 234820 7.9411397235799859e+03 2.3891507182149002e+04 4.7764412440273863e-15 5.6784727746475864e+03 8.6180620895138218e+03 4.8332931456976272e+04 -999 2.95612150e-01 1.194438929e-01 -1.30597498e-01
 74 3 234820 7.8791824630151468e+03 2.7404797473598537e+04 4.4819178092610492e-15 5.5396415411156331e+03 9.9608382939351177e+03 2.8273476942397443e+04 -999 2.94211548e-01 1.176929050e-01 -1.30034605e-01
 75 3 234820 7.6974370986772965e+03 3.0668043726478700e+04 4.3504191224367136e-15 5.4707610345273461e+03 1.1829065649295002e+04 1.8217420402423511e+04 -999 2.93424547e-01 1.166377669e-01 -1.29684967e-01
 76 3 234820 6.7254561992021736e+03 2.1239661275430721e+04 4.2286550507309905e-15 5.0698868989414841e+03 8.0605149355242211e+03 1.5139648914070520e+04 -999 2.89764412e-01 1.118859079e-01 -1.28128899e-01
 77 3 234820 5.9454552787559469e+03 1.5426588021319596e+04 4.1052390471719721e-15 4.9012133258131516e+03 6.0537133079849627e+03 1.3583895992708047e+04 -999 2.86801902e-01 1.070158666e-01 -1.26324569e-01
 78 3 234820 5.5708603722043890e+03 1.3614819716384807e+04 3.9083944581835566e-15 4.8400243234803811e+03 5.5767476229098438e+03 1.3036841162475966e+04 -999 2.86085937e-01 1.040902144e-01 -1.25230278e-01
 79 3 234820 5.3378221891501189e+03 1.2391421746029184e+04 3.7743633875332353e-15 4.8377729559312829e+03 5.3028336280419971e+03 1.3879746596494018e+04 -999 2.86381270e-01 1.017545380e-01 -1.24460412e-01
 80 3 234820 5.3304724247858931e+03 1.1050524440074818e+04 3.7947278606938840e-15 4.8887411548506852e+03 5.2191210178844958e+03 1.3410823509206963e+04 -999 2.87945014e-01 9.911234170e-02 -1.23825143e-01
 81 3 234820 4.5961628003002388e+03 7.9948021130677480e+03 3.6595598138679705e-13 4.2180471675839162e+03 4.4083761462466018e+03 1.7066204291920014e+04 -999 3.06827125e-01 9.222164661e-02 -1.26171241e-01
 82 3 234820 4.8289171355184553e+03 7.9964474650991860e+03 4.5451668679924627e-13 4.0487445253406954e+03 4.6918859140179011e+03 4.8043608185942801e+04 -999 3.37376403e-01 8.640589676e-02 -1.33792732e-01
 83 3 234820 5.2101498065842643e+03 1.0555049766136868e+04 3.2438183989806953e-13 3.7587599006565965e+03 5.8415398509386550e+03 6.7133450537589160e+04 -999 3.70586561e-01 8.224887419e-02 -1.44703141e-01
 84 3 234820 5.5933691269456958e+03 1.1048995046892524e+04 2.3688018881753474e-13 3.5132033887500224e+03 9.9009106711323475e+03 1.2911377029655477e+05 -999 3.87562913e-01 8.056182920e-02 -1.50956291e-01
 85 3 234820 5.2231461552535238e+03 8.9122644668861140e+03 1.9514223712906068e-13 3.5773781954018805e+03 1.0539046999124870e+04 2.3089827255263476e+05 -999 3.97041632e-01 7.969577472e-02 -1.54438617e-01
 86 3 234820 3.3292240829873676e+03 4.8712459071318954e+03 2.2156457521155506e-13 2.8747707326833993e+03 3.3764135205027651e+03 3.7001894013828918e+05 -999 4.24755368e-01 7.749045269e-02 -1.64571948e-01
 87 3 234820 2.7906655012989831e+03 5.0375584645625258e+03 3.2890566821963908e-13 3.0021128988212349e+03 3.1712620774749103e+03 2.2477447631882582e+05 -999 4.51527788e-01 7.530716831e-02 -1.73952132e-01
 88 3 234820 2.6463851713094527e+03 6.3916173586537752e+03 3.6927447117907439e-13 2.5112690387059783e+03 3.2480363489160472e+03 2.0668644220982483e+05 -999 4.58615926e-01 7.476448722e-02 -1.76193874e-01
 89 3 234820 2.5863119793154042e+03 6.1154587356226193e+03 3.8853983680090580e-13 2.2390500340628641e+03 3.2010419734076600e+03 8.1115916727807009e+04 -999 4.62266731e-01 7.449772345e-02 -1.77306127e-01
 90 3 234820 2.5449407278811445e+03 5.4045755247137977e+03 4.0339560581973715e-13 2.1921782185911129e+03 3.0913127664170074e+03 3.9929585277909209e+04 -999 4.65224836e-01 7.428720201e-02 -1.78190390e-01
 91 3 234820 2.1559100348428337e+03 2.5050328886479933e+03 1.1864931651185528e-12 1.5164681648673277e+03 2.0720747874802678e+03 1.7540933636783488e+05 -999 5.22309181e-01 7.138702189e-02 -1.92766339e-01
 92 3 234820 2.0457548693338663e+03 2.4456483310550784e+03 1.2117056130326682e-12 1.0200452958849161e+03 1.9716848997310876e+03 5.7027753616761358e+04 -999 5.83351420e-01 6.928316327e-02 -2.03225748e-01
 93 3 234820 2.0012921925928365e+03 2.3165727928054330e+03 9.3388862388331383e-13 7.9183587923378468e+02 1.9414695392791598e+03 2.9177028165956341e+04 -999 6.20671545e-01 6.908912109e-02 -2.07212816e-01
 94 3 234820 1.9751310220679427e+03 2.2156686700519281e+03 7.4141130106293871e-13 6.6523905267860346e+02 1.9245393051365309e+03 2.0048011002219973e+04 -999 6.48125356e-01 6.928392418e-02 -2.09114343e-01
 95 3 234820 1.9825191008013221e+03 2.0881186298337834e+03 5.6164735304796893e-13 5.5805374108761646e+02 1.9420422725824742e+03 1.1555062625317731e+04 -999 6.77511028e-01 6.974829627e-02 -2.10326952e-01
 96 3 234820 1.4468522081875444e+03 1.6098714038718704e+03 3.8877611855465039e-13 3.8373734380066691e+02 1.3745877365782153e+03 9.8173068264027770e+03 -999 7.70855565e-01 7.307556077e-02 -2.08641901e-01
 97 3 234820 1.2062458679639144e+03 1.3875472992691778e+03 3.4326351479212106e-13 3.0480690712423916e+02 1.1280976110418396e+03 7.2029422290507100e+03 -999 8.31321655e-01 7.494170949e-02 -2.04034087e-01
 98 3 234820 1.0531243988781614e+03 1.2259568080441290e+03 2.8516625512054848e-13 2.7058567081040877e+02 9.6989668016570454e+02 6.2603463462711288e+03 -999 8.82618159e-01 7.560579264e-02 -1.98709017e-01
 99 3 234820 9.7375865281111180e+02 1.1962611787980820e+03 2.5258552856418957e-13 2.5682679937327822e+02 8.8634656453925322e+02 6.2056270732564490e+03 -999 9.05454130e-01 7.521746710e-02 -1.96166720e-01
 100 3 234820 9.2863067557813577e+02 1.1986864932743363e+03 2.3062472327482076e-13 2.5391336261251010e+02 8.4009969604575588e+02 7.6773860626354035e+03 -999 9.21430734e-01 7.466416254e-02 -1.94438653e-01
 101 3 234820 9.1359828886115417e+02 1.5599067364514137e+03 2.3141075148406148e-13 2.7920570019811476e+02 8.3817794397414832e+02 9.5075659879166506e+03 -999 9.32779913e-01 7.415734397e-02 -1.93784100e-01
 102 3 234820 9.0161502635859802e+02 1.6805597720879450e+03 3.1574960239283239e-13 3.1325394559317141e+02 8.2730759303421701e+02 8.4041351564280030e+03 -999 9.46971666e-01 7.345491899e-02 -1.92875469e-01
 103 3 234820 8.9689781504671339e+02 1.4549017771205570e+03 3.9834017298565668e-13 3.3357623741598786e+02 8.0537754647454562e+02 8.9640194250369987e+03 -999 9.63151880e-01 7.257986395e-02 -1.91804490e-01
 104 3 234820 8.9965934436766213e+02 1.3032056419588921e+03 4.5608079749450220e-13 3.4720380601644848e+02 7.9841380857861179e+02 9.5262694684773778e+03 -999 9.78234516e-01 7.169643617e-02 -1.90744946e-01
 105 3 234820 9.2565841587243335e+02 1.2199870804341767e+03 4.8888929989076112e-13 3.5490402614414933e+02 8.1826392909264860e+02 9.5887549231097473e+03 -999 9.91276038e-01 7.088410759e-02 -1.89742728e-01
 106 3 234820 9.2565841587243335e+02 1.2690875441254120e+03 5.2992117752697184e-13 3.6290501187618759e+02 8.1973639265519591e+02 5.3694076517266176e+03 -999 9.91276038e-01 7.088410759e-02 -1.89742728e-01
 107 3 234820 9.4718660366622782e+02 1.3213194793804937e+03 5.5301122434416642e-13 3.9223044825020395e+02 8.4170342659021264e+02 8.4358876830146219e+03 -999 9.98070601e-01 7.051650196e-02 -1.89235589e-01
 108 3 234820 8.9863812301630344e+02 1.2405332351186698e+03 4.2401226713576276e-13 3.3560836170297188e+02 7.9407536802190089e+02 1.0141776784355967e+04 -999 1.00027472e+00 7.046901545e-02 -1.89178166e-01
 109 3 234820 8.8856985721263004e+02 1.1565679907213630e+03 2.7384783401460805e-13 2.9637779222152977e+02 7.8569216571415484e+02 1.0928136347896254e+04 -999 1.00317644e+00 7.039492608e-02 -1.89111985e-01
 110 3 234820 9.1595720146037831e+02 1.0526436812616562e+03 1.3104042081911812e-13 2.8753139577944415e+02 8.1638751015417824e+02 1.0414264655936126e+04 -999 1.00732748e+00 7.025515252e-02 -1.89006383e-01
 111 3 234820 9.1216932790918122e+02 1.0169954487158353e+03 9.9621819653914272e-14 2.8955457414881863e+02 8.1385878275245841e+02 1.1231565662016634e+04 -999 1.00943424e+00 7.015145369e-02 -1.88927670e-01
 112 3 234820 9.1398833972860996e+02 9.7772770169963746e+02 7.3099531587243988e-14 2.9543244265557098e+02 8.1581195093018152e+02 1.1967754098848376e+04 -999 1.01195034e+00 6.999352059e-02 -1.88780566e-01
 113 3 234820 9.2873791050990849e+02 9.3289278029409809e+02 5.5612777208363668e-14 2.9969585616383364e+02 8.2891343804737664e+02 1.2479913078536294e+04 -999 1.01518040e+00 6.973011718e-02 -1.88483561e-01
 114 3 234820 9.4655628668143981e+02 9.0401949065917017e+02 5.1250318305341717e-14 2.9232533119109161e+02 8.4416807349166322e+02 1.3032552527722888e+04 -999 1.01798378e+00 6.944740760e-02 -1.88145335e-01
 115 3 234820 9.6656684529721383e+02 8.8567773051961865e+02 5.0055121885753274e-14 2.8320038333226825e+02 8.6096678605152999e+02 1.3441706462425112e+04 -999 1.02005751e+00 6.920642188e-02 -1.87846390e-01
 116 3 234820 9.7155635618320787e+02 8.6435239817480874e+02 8.5721883044058129e-14 2.6599804979757806e+02 8.6301152503093215e+02 1.3644846837943353e+04 -999 1.02322669e+00 6.880678091e-02 -1.87334767e-01
 117 3 234820 1.0025339546435443e+03 8.4041589688916793e+02 1.3739406003166140e-13 2.4351175032402276e+02 8.9107184777994985e+02 1.3766811266468210e+04 -999 1.02779129e+00 6.826343082e-02 -1.86701282e-01
 118 3 234820 1.0382540952417487e+03 8.2501522329929298e+02 1.5631268620686122e-13 2.2483657383718898e+02 9.2327187633258961e+02 1.3878110520434006e+04 -999 1.03305697e+00 6.763899933e-02 -1.85995758e-01
 119 3 234820 1.0676699693462085e+03 8.2009219966311366e+02 1.5928343327584897e-13 2.1847005024990037e+02 9.4829602094382039e+02 1.3942715782412852e+04 -999 1.03730113e+00 6.720433458e-02 -1.85604269e-01
 120 3 234820 1.1020145713189468e+03 8.2402379283497089e+02 1.6231110556408289e-13 2.1535295646633725e+02 9.8568249169216608e+02 1.3774263419591891e+04 -999 1.04199600e+00 6.677906746e-02 -1.85298763e-01
 121 3 234820 1.0571184806625165e+03 8.1241082909016427e+02 1.1514505626136618e-13 2.1336320256764762e+02 9.3629152387297768e+02 1.3937679107616488e+04 -999 1.04557333e+00 6.650713630e-02 -1.85168110e-01
 122 3 234820 1.0642210140833840e+03 8.0613710818131801e+02 1.0337514235629332e-13 2.1259999172382783e+02 9.3755048992371132e+02 1.3774918442406852e+04 -999 1.05022785e+00 6.617273302e-02 -1.85032703e-01
 123 3 234820 1.1116096426430663e+03 8.0815793864600596e+02 1.1404105157072055e-13 2.0728853544358248e+02 9.8789673064025101e+02 1.3761977038094637e+04 -999 1.05626713e+00 6.574608985e-02 -1.84827430e-01
 124 3 234820 1.0828027312174049e+03 8.0240163232674286e+02 1.2269097377423828e-13 2.0471446166636349e+02 9.5743418038893446e+02 1.3774665870164843e+04 -999 1.06185456e+00 6.537372210e-02 -1.84608096e-01
 125 3 234820 1.0876563042240737e+03 7.9467947459994411e+02 1.2837973639466964e-13 2.0626301510650680e+02 9.5884571777381871e+02 1.3652109470933658e+04 -999 1.06500270e+00 6.518416777e-02 -1.84514632e-01
 126 3 234820 1.0065866004470637e+03 7.7084149572410229e+02 1.4417954138474205e-13 2.0101087410408709e+02 8.8373622315743580e+02 1.3412102213625049e+04 -999 1.06967615e+00 6.486843622e-02 -1.84295208e-01
 127 3 234820 9.5958375849135211e+02 7.4960481227725688e+02 2.1689881554840581e-13 2.0355947146016896e+02 8.3950734455744555e+02 1.3656554327770264e+04 -999 1.07535949e+00 6.449988233e-02 -1.83980209e-01
 128 3 234820 9.6443037692220082e+02 7.3776418966232154e+02 2.5639353442113824e-13 2.0400373709823975e+02 8.4839004024256167e+02 1.3399838038438484e+04 -999 1.08028123e+00 6.422555468e-02 -1.83713880e-01
 129 3 234820 9.3743957683693725e+02 7.3183368772090330e+02 2.7157317655873860e-13 2.0349067446652049e+02 8.2559948091829801e+02 1.3237625276818626e+04 -999 1.08370854e+00 6.404684927e-02 -1.83501770e-01
 130 3 234820 9.3903747473137616e+02 7.3876245338553963e+02 2.7987009334130659e-13 2.0506897430963096e+02 8.2372748633552885e+02 1.3444915043259958e+04 -999 1.08701486e+00 6.387886871e-02 -1.83267472e-01
 131 3 234820 9.0427740438792353e+02 7.2081945260317252e+02 2.2667068645098123e-13 2.0454924930691516e+02 7.8987497543333234e+02 1.3944811343641401e+04 -999 1.08962232e+00 6.377084066e-02 -1.83119349e-01
 132 3 234820 8.8353587870120680e+02 7.0953650954437194e+02 2.0067371009957186e-13 2.0351618166605402e+02 7.7063645404953468e+02 1.3693583131582704e+04 -999 1.09269788e+00 6.364274461e-02 -1.82913289e-01
 133 3 234820 8.7887361927793029e+02 7.0575488525518745e+02 1.9178160371060470e-13 2.0203615525496969e+02 7.6669722551553286e+02 1.5559538152398367e+04 -999 1.09612698e+00 6.349420101e-02 -1.82633536e-01
 134 3 234820 8.9144888482278975e+02 7.0205966275956087e+02 1.8602803831269227e-13 1.9758614503697450e+02 7.8106818166141011e+02 1.4372622245291706e+04 -999 1.09931053e+00 6.335416167e-02 -1.82332820e-01
 135 3 234820 8.8473942892258049e+02 6.9865589550645734e+02 1.8102394994579892e-13 1.9550657314415628e+02 7.7529484909772918e+02 1.4720609560321929e+04 -999 1.10094552e+00 6.327231331e-02 -1.82141820e-01
 136 3 234820 8.5521282064631816e+02 6.9029697903577051e+02 1.2873499818112604e-13 1.9599702933379348e+02 7.4420937634245422e+02 1.4132242310471514e+04 -999 1.10325370e+00 6.316629298e-02 -1.81895460e-01
 137 3 234820 8.6089506387193501e+02 6.8486684256498836e+02 1.2929157409923648e-13 1.9439445039581372e+02 7.4960613293366043e+02 1.4917840499110622e+04 -999 1.10599692e+00 6.303285415e-02 -1.81574449e-01
 138 3 234820 8.7111809747130644e+02 6.8121818056095071e+02 1.3827779023860301e-13 1.9001744885133095e+02 7.6056998383041082e+02 1.5163666095151131e+04 -999 1.10849722e+00 6.290203708e-02 -1.81253107e-01
 139 3 234820 8.8912992002020894e+02 6.8635739544399792e+02 1.4102083101151956e-13 1.8736666088224106e+02 7.7825302218149352e+02 1.5020511126758252e+04 -999 1.11051361e+00 6.277342469e-02 -1.80938987e-01
 140 3 234820 9.0864461695705768e+02 6.9877605831499989e+02 1.4039589415685092e-13 1.8598647096517317e+02 7.9866630238860648e+02 1.5625652261944811e+04 -999 1.11200626e+00 6.265837442e-02 -1.80663044e-01
 141 3 234820 8.7977881018155210e+02 6.8312424192799051e+02 1.1420154263627094e-13 1.8657511816577085e+02 7.6832155064848314e+02 1.7220554447438357e+04 -999 1.11326383e+00 6.258704265e-02 -1.80502191e-01