TITLE = "005.01 ALPHA 3.10 GRIDLEVEL 2"

VARIABLES = "ITERATION"  "GRID_LEVEL"  "GRID_SIZE"  "CONTINUITY"  "MOMENTUMX"  "MOMENTUMY"  "MOMENTUMZ"  "ENERGY"  "TURB1"  "TURB2"  "CL_TOT"  "CD_TOT"  "CM_TOT"

DATASETAUXDATA ParticipantID   = "005"
DATASETAUXDATA SubmissionDate  = "10-31-2024"
DATASETAUXDATA Name            = "Jeffrey A. Housman"
DATASETAUXDATA Email           = "jeffrey.a.housman@nasa.gov"
DATASETAUXDATA Institution     = "NASA Ames Research Center"
DATASETAUXDATA SolverName      = "LAVA Curvilinear"
DATASETAUXDATA BasicAlgorithm  = "RANS"
DATASETAUXDATA TurbulenceModel = "SA-neg"
DATASETAUXDATA GridId          = "Multiblock"
DATASETAUXDATA Discretization  = "Finite difference"
DATASETAUXDATA Order           = "2"
DATASETAUXDATA DistanceCalc    = "Exact"
DATASETAUXDATA Notes           = " "

ZONE T = "005.01 - Alpha 3.10 - Grid Level 2"
AUXDATA Tstatic         = "271.0"
AUXDATA Deltat          = "-999"
AUXDATA GridFileName    = "ONERA-OAT15A_230mmChord_780mmSpan_upZ_2024_06_25-Structured_23mm_Level-2.x"
AUXDATA Misc            = " "
 0 2 119662 1.7449845205614271e+05 3.5783694979636255e+05 3.0557968596880236e-14 1.5222741463841262e+05 1.7692734160710001e+05 4.8654306114361912e+05 -999 7.85482142e-03 4.528546251e-01 -4.50611209e-03
 1 2 119662 2.3829818869583594e+05 2.8746064198897220e+05 2.7491091649261770e-14 1.2742653105248199e+05 2.3098135601784263e+05 3.1397565135246061e+05 -999 4.55776116e-02 4.469019633e-01 -2.05887556e-02
 2 2 119662 2.8749162205071625e+05 2.5738572415225970e+05 2.5158522327260510e-14 1.4132333572688448e+05 2.7507537274558947e+05 2.0237375172435204e+05 -999 8.68503164e-02 4.522124834e-01 -3.78791746e-02
 3 2 119662 3.3752553829774167e+05 2.3626482024825783e+05 2.3354413681282442e-14 1.6357640435275127e+05 3.2202385034863424e+05 1.2961675653807413e+05 -999 1.22048056e-01 4.619355329e-01 -5.32977622e-02
 4 2 119662 3.8802833512396849e+05 2.1817391790660552e+05 2.1949236736587362e-14 1.9019118432388722e+05 3.7322447759397252e+05 8.1832424581665313e+04 -999 1.52435113e-01 4.742364932e-01 -6.52029002e-02
 5 2 119662 4.3574008787270659e+05 2.1853564011265276e+05 2.0838919919960536e-14 2.1970938011885880e+05 4.2535328669774364e+05 4.2158577621680539e+04 -999 1.76985376e-01 4.870570858e-01 -7.43433831e-02
 6 2 119662 3.9767139490081702e+05 2.5645696988834342e+05 1.9959919661417807e-14 2.3183248086219217e+05 3.9020527506500174e+05 3.4136458929349224e+04 -999 1.94002020e-01 4.929902588e-01 -8.12313676e-02
 7 2 119662 3.9409027677537693e+05 2.7545096904421214e+05 1.9162144589571968e-14 2.3597673954580963e+05 3.8339127354613232e+05 2.8273987974534968e+04 -999 2.07319873e-01 4.943767346e-01 -8.71250650e-02
 8 2 119662 4.2883889105731482e+05 2.7326831882680458e+05 1.8594271496534642e-14 2.3260083424161270e+05 4.3129962299947813e+05 2.4252689587208028e+04 -999 2.17529335e-01 4.900026329e-01 -9.16127561e-02
 9 2 119662 4.4861979819365049e+05 2.5366071517884935e+05 1.8185547507560862e-14 2.3330085072006658e+05 4.5476253388744307e+05 2.1450314690008603e+04 -999 2.27351812e-01 4.821520583e-01 -9.54677720e-02
 10 2 119662 4.6395837400931009e+05 2.5052743808946348e+05 1.7986271909255165e-14 2.2716047531337789e+05 4.8059743468758732e+05 1.9192728686240924e+04 -999 2.34350292e-01 4.761062398e-01 -9.80023311e-02
 11 2 119662 3.8375964988377126e+05 2.1602256995974449e+05 1.7778703238415290e-14 2.0917685124660577e+05 3.9161344033168379e+05 1.7193793048155108e+04 -999 2.42626920e-01 4.686277240e-01 -1.01040209e-01
 12 2 119662 3.6259632953797682e+05 2.1815485407744496e+05 1.7633918775734759e-14 2.0128690671325070e+05 3.6490228291151492e+05 1.5623604678473504e+04 -999 2.49167709e-01 4.626461579e-01 -1.03413893e-01
 13 2 119662 3.4411024830015615e+05 1.9236634985691559e+05 1.7591166237557755e-14 1.9139194085026148e+05 3.4311762533875939e+05 1.4307529547467710e+04 -999 2.54292384e-01 4.574607923e-01 -1.05332978e-01
 14 2 119662 3.7623111729139445e+05 2.0101421757028863e+05 1.7598855871573381e-14 1.8914855996373331e+05 3.8736471438113792e+05 1.3161942149665227e+04 -999 2.57800305e-01 4.532302130e-01 -1.06724433e-01
 15 2 119662 3.4123973951306898e+05 1.6960504308573285e+05 1.7566118380754463e-14 1.7844845505879403e+05 3.4750522880339029e+05 1.2204513690218411e+04 -999 2.60271075e-01 4.496651392e-01 -1.07782918e-01
 16 2 119662 3.1820369712900254e+05 1.7696034662458606e+05 1.7457277986563733e-14 1.7115606402890437e+05 3.2457107235127082e+05 1.1163856027143966e+04 -999 2.62420084e-01 4.459384329e-01 -1.08766745e-01
 17 2 119662 2.8301531136883696e+05 1.6928687683445596e+05 1.7330966536829032e-14 1.5724285815178230e+05 2.8846976675211004e+05 1.0275323983007909e+04 -999 2.64587185e-01 4.418043362e-01 -1.09776337e-01
 18 2 119662 2.9370996591320104e+05 1.6462355611979149e+05 1.7224300845933398e-14 1.5375869158427429e+05 2.9881725376925821e+05 9.4993716774365421e+03 -999 2.67093436e-01 4.366053948e-01 -1.10921829e-01
 19 2 119662 2.6605883636831649e+05 1.4611859269751326e+05 1.7109664734487055e-14 1.4255796486942933e+05 2.7088013072831399e+05 8.8433702881547615e+03 -999 2.68581679e-01 4.331323656e-01 -1.11557257e-01
 20 2 119662 3.1066900530114572e+05 1.7160402639327224e+05 1.6992256160070391e-14 1.4818415538079382e+05 3.2587813917561446e+05 8.2747302686003477e+03 -999 2.70211758e-01 4.289035579e-01 -1.12214866e-01
 21 2 119662 2.5789618516939954e+05 1.5849211016110409e+05 1.6853845403617045e-14 1.3256491519055952e+05 2.7313705410520459e+05 7.6449038770073321e+03 -999 2.71290810e-01 4.252581000e-01 -1.12618085e-01
 22 2 119662 2.1693028504011751e+05 1.2987014224970494e+05 1.6690132771668244e-14 1.1933482027391793e+05 2.2198895842282087e+05 7.0756749448392866e+03 -999 2.72443543e-01 4.208158125e-01 -1.13037162e-01
 23 2 119662 1.9954757294066451e+05 1.2459863817528072e+05 1.6536822950067224e-14 1.1114265384721545e+05 2.0132279398861036e+05 6.5760962167269663e+03 -999 2.73363068e-01 4.167471190e-01 -1.13364915e-01
 24 2 119662 2.2675327070370538e+05 1.2722608700119136e+05 1.6415465986901523e-14 1.1041831750330290e+05 2.3594668994106844e+05 6.1410377486793177e+03 -999 2.74188828e-01 4.127215723e-01 -1.13656160e-01
 25 2 119662 2.0368696363050712e+05 1.0610036663829269e+05 1.6339667000851146e-14 1.0280535825742336e+05 2.1017372123338102e+05 5.7668610964888694e+03 -999 2.74726903e-01 4.098585887e-01 -1.13845265e-01
 26 2 119662 1.8250520489542777e+05 1.0723265804525543e+05 1.6193066105682047e-14 9.6113129055645899e+04 1.8939301594270923e+05 5.3189365468200840e+03 -999 2.75218621e-01 4.067036464e-01 -1.14013270e-01
 27 2 119662 1.5637994973569797e+05 1.0094910219572778e+05 1.6003591530890898e-14 8.6575125196472189e+04 1.6164979279345804e+05 4.9243730690969378e+03 -999 2.75765031e-01 4.029831297e-01 -1.14201935e-01
 28 2 119662 1.4681703036710437e+05 9.4481954770330951e+04 1.5806406015838993e-14 7.9684468900121952e+04 1.4949592958678911e+05 4.5794543113730269e+03 -999 2.76295051e-01 3.991355221e-01 -1.14388663e-01
 29 2 119662 1.5699209278328854e+05 9.1262620000941344e+04 1.5613713016704366e-14 7.7175726590482256e+04 1.6094846232099261e+05 4.2748756092248223e+03 -999 2.76763624e-01 3.955154621e-01 -1.14557215e-01
 30 2 119662 1.4894954066105548e+05 8.4917415397605102e+04 1.5480074442193674e-14 7.2930152067297851e+04 1.5547318107664800e+05 4.0135671690551121e+03 -999 2.77061916e-01 3.930675237e-01 -1.14665489e-01
 31 2 119662 1.2770456690881052e+05 7.9245634760568733e+04 1.5288908816912232e-14 6.6732661598405190e+04 1.3398465863111938e+05 3.7123737787513951e+03 -999 2.77352624e-01 3.901905189e-01 -1.14766938e-01
 32 2 119662 1.0666200985301191e+05 7.4955951228300561e+04 1.5049465216387110e-14 5.9936847376593156e+04 1.1057219457221836e+05 3.4376242640955174e+03 -999 2.77687038e-01 3.867701741e-01 -1.14883495e-01
 33 2 119662 9.8399614340221364e+04 7.0682227494682520e+04 1.4803014120603826e-14 5.4761004015368846e+04 9.9958972716531673e+04 3.1955233874036558e+03 -999 2.78007631e-01 3.833569544e-01 -1.14995417e-01
 34 2 119662 1.0715590125380152e+05 7.0499889048522178e+04 1.4583497730882533e-14 5.2793592457979648e+04 1.1080068440117691e+05 2.9837043370685647e+03 -999 2.78286252e-01 3.802654595e-01 -1.15092699e-01
 35 2 119662 1.0375878297961350e+05 6.4759468483378616e+04 1.4414511656381464e-14 5.0612322070774273e+04 1.0687109876081866e+05 2.8028803184417238e+03 -999 2.78490634e-01 3.779093344e-01 -1.15163642e-01
 36 2 119662 8.8861932593995327e+04 6.3492703180514778e+04 1.4215478534047920e-14 4.6230863873084942e+04 9.3522294724899359e+04 2.5918955011019098e+03 -999 2.78668397e-01 3.754152938e-01 -1.15220951e-01
 37 2 119662 7.1947368449838381e+04 5.8034109406242947e+04 1.3982948665889109e-14 4.1047030101802149e+04 7.5571202950376857e+04 2.4024882892347655e+03 -999 2.78873240e-01 3.725395418e-01 -1.15286966e-01
 38 2 119662 6.2991555541941299e+04 5.3042368481033431e+04 1.3707992722138210e-14 3.6690469832236886e+04 6.3928388825003349e+04 2.2303552307516543e+03 -999 2.79098855e-01 3.693779504e-01 -1.15359759e-01
 39 2 119662 6.5959331126074787e+04 5.1512781459882492e+04 1.3439027606880968e-14 3.4559663334593337e+04 6.7623485142581456e+04 2.0770571394526032e+03 -999 2.79311847e-01 3.663934267e-01 -1.15428722e-01
 40 2 119662 6.5576513608551817e+04 4.9939178322153632e+04 1.3248015136641793e-14 3.3156065959425890e+04 6.8146715513284857e+04 1.9461019307242868e+03 -999 2.79467526e-01 3.641953965e-01 -1.15479417e-01
 41 2 119662 5.5878640139202638e+04 4.7322467812675277e+04 1.3038303508500001e-14 3.0474537054266162e+04 5.9107611075414032e+04 1.7819771909802771e+03 -999 2.79603024e-01 3.618876621e-01 -1.15520828e-01
 42 2 119662 4.4527410855990187e+04 4.4552123380200079e+04 1.2779183054082043e-14 2.7382527237146882e+04 4.6956457051129597e+04 1.6355190391087049e+03 -999 2.79768937e-01 3.590978446e-01 -1.15572164e-01
 43 2 119662 3.8057361898338204e+04 4.1650021508829239e+04 1.2485102348636379e-14 2.4652660299662195e+04 3.8741688167592671e+04 1.5081305356336468e+03 -999 2.79953476e-01 3.560312544e-01 -1.15629925e-01
 44 2 119662 3.8100934439858182e+04 4.0231322536792184e+04 1.2216890157353691e-14 2.3122456885853178e+04 3.8888701822028830e+04 1.3998450166760688e+03 -999 2.80119662e-01 3.532870012e-01 -1.15682635e-01
 45 2 119662 3.9484053960370678e+04 4.0125085052312315e+04 1.1995094617976389e-14 2.2265385908255128e+04 4.1225631305121191e+04 1.2995058305063110e+03 -999 2.80259862e-01 3.509666002e-01 -1.15727926e-01
 46 2 119662 3.3696996012675940e+04 3.7697995686233262e+04 1.1774464851615725e-14 2.0820019822496750e+04 3.5582802900393173e+04 1.1762970958377216e+03 -999 2.80374796e-01 3.486754679e-01 -1.15762960e-01
 47 2 119662 2.7417804745807160e+04 3.5563714968993998e+04 1.1506674170397776e-14 1.9228370257544626e+04 2.8723995483837556e+04 1.0686117293656152e+03 -999 2.80514570e-01 3.459254217e-01 -1.15806201e-01
 48 2 119662 2.3242078311142501e+04 3.3689642211531340e+04 1.1210283419283528e-14 1.7710598809797575e+04 2.3511105746639969e+04 9.7573621149958569e+02 -999 2.80677106e-01 3.427593944e-01 -1.15857269e-01
 49 2 119662 2.2184724668787407e+04 3.2368026205763068e+04 1.0929180622811790e-14 1.6644228046034175e+04 2.2177674935068691e+04 8.9826985484613840e+02 -999 2.80831849e-01 3.397499861e-01 -1.15906961e-01
 50 2 119662 2.1930396777187940e+04 3.1514393655146021e+04 1.0668970470010808e-14 1.5895392491272172e+04 2.2127767627706809e+04 8.3210839584534983e+02 -999 2.80966625e-01 3.371000817e-01 -1.15951671e-01
 51 2 119662 1.9572030369332460e+04 3.0203043946696813e+04 1.0421806385130793e-14 1.5049230971431700e+04 1.9783827342354849e+04 7.4428244433012242e+02 -999 2.81068978e-01 3.344704797e-01 -1.15980926e-01
 52 2 119662 1.7066624878203136e+04 2.8814681284387283e+04 1.0136912337557550e-14 1.4075966336814205e+04 1.7072250397811593e+04 6.7211546281729784e+02 -999 2.81189253e-01 3.312994081e-01 -1.16014041e-01
 53 2 119662 1.5218512350939172e+04 2.7397468557125419e+04 9.8003037961971103e-15 1.3040586539216623e+04 1.4955287233593377e+04 6.1273433764793879e+02 -999 2.81324027e-01 3.275852735e-01 -1.16048786e-01
 54 2 119662 1.4286530098451285e+04 2.6206702559176982e+04 9.4549513362094177e-15 1.2147030735612747e+04 1.4009478852619790e+04 5.6377480705826167e+02 -999 2.81447110e-01 3.239342640e-01 -1.16077457e-01
 55 2 119662 1.3724557333600473e+04 2.5254355688308311e+04 9.1768952119835850e-15 1.1418952026855146e+04 1.3597272251550206e+04 5.2282014012645311e+02 -999 2.81548375e-01 3.206147222e-01 -1.16098294e-01
 56 2 119662 1.2630306300310447e+04 2.4170814470169917e+04 8.8807347638472567e-15 1.0665222089384744e+04 1.2630664983482575e+04 4.7768418354638192e+02 -999 2.81603164e-01 3.170359371e-01 -1.16082357e-01
 57 2 119662 1.1519660918253205e+04 2.2946844402869501e+04 8.5435225991296994e-15 9.8010131260994749e+03 1.1674381115359458e+04 4.4418271826170479e+02 -999 2.81657553e-01 3.125333948e-01 -1.16046632e-01
 58 2 119662 1.0694218333339930e+04 2.1698463421551853e+04 8.1822560682541424e-15 8.9426022674348042e+03 1.1076003963964009e+04 4.2089205919128534e+02 -999 2.81701504e-01 3.072995728e-01 -1.15982604e-01
 59 2 119662 1.0244765921739168e+04 2.0646555376381129e+04 7.8359216326436751e-15 8.2776236124596417e+03 1.0896385131227960e+04 4.0376166689723567e+02 -999 2.81726492e-01 3.021878835e-01 -1.15897077e-01
 60 2 119662 1.0034336170448858e+04 1.9788236564167273e+04 7.5532780235928385e-15 7.8087672855089786e+03 1.0940392301268595e+04 3.8955043017627230e+02 -999 2.81738952e-01 2.973594381e-01 -1.15799382e-01
 61 2 119662 9.6239338499675541e+03 1.8819790838491881e+04 7.2489130099275470e-15 7.3490105258991880e+03 1.0798943958777938e+04 3.7497604389930063e+02 -999 2.81715680e-01 2.915329393e-01 -1.15619070e-01
 62 2 119662 9.4197446477864814e+03 1.7757893961971582e+04 6.9398945701145402e-15 7.0229487818489752e+03 1.0835044563200616e+04 3.7305978530428479e+02 -999 2.81717660e-01 2.839088625e-01 -1.15362895e-01
 63 2 119662 9.5254420245163274e+03 1.6780031872590513e+04 6.6626627630052993e-15 6.9658679623017206e+03 1.1092361354651573e+04 3.7949080706787379e+02 -999 2.81792388e-01 2.751214639e-01 -1.15058849e-01
 64 2 119662 9.7854910794747575e+03 1.6023930946499220e+04 6.4641692068651666e-15 7.1020260907389138e+03 1.1416951818579611e+04 3.8664896275674016e+02 -999 2.81976633e-01 2.665549100e-01 -1.14785975e-01
 65 2 119662 1.0036169772876172e+04 1.5412618313730945e+04 6.3201170428721420e-15 7.3039080519752270e+03 1.1680701368149605e+04 3.9397511170118889e+02 -999 2.82226340e-01 2.582925943e-01 -1.14599155e-01
 66 2 119662 1.0082344667572122e+04 1.4555979726920630e+04 6.1696056554822453e-15 7.1441027984751945e+03 1.1692891727071674e+04 4.0764447666849088e+02 -999 2.82907042e-01 2.471710320e-01 -1.14510939e-01
 67 2 119662 1.0088876038238972e+04 1.3704061342850280e+04 6.0872407093651513e-15 6.9650410233410330e+03 1.1570052051340213e+04 4.5402785690593345e+02 -999 2.84321635e-01 2.321389348e-01 -1.14684378e-01
 68 2 119662 9.9551538915862584e+03 1.3209221210036500e+04 5.9757701749714989e-15 6.7693624847438568e+03 1.1254763993633511e+04 5.3733445054729998e+02 -999 2.86413113e-01 2.168640511e-01 -1.15367807e-01
 69 2 119662 9.7027614177154755e+03 1.3008164114051740e+04 5.8411443041290069e-15 6.6269015898275002e+03 1.0811787764280436e+04 7.3434265412125785e+02 -999 2.88849330e-01 2.027590699e-01 -1.16602246e-01
 70 2 119662 9.3736777612208953e+03 1.3020527143580375e+04 5.6218158659466641e-15 6.6015760208042848e+03 1.0268681831404307e+04 1.1856674141931239e+03 -999 2.91359018e-01 1.894364129e-01 -1.18383474e-01
 71 2 119662 8.5323738347569379e+03 1.1892709503149636e+04 5.2697385279590628e-15 6.5779563456002197e+03 9.0978760919745109e+03 2.1180231505244724e+03 -999 2.94514519e-01 1.696483904e-01 -1.22093932e-01
 72 2 119662 7.6246040989554722e+03 1.1199520519823784e+04 4.8463048231373817e-15 6.5700807355001152e+03 7.9056478446756591e+03 3.6167009829837220e+03 -999 2.95111395e-01 1.517150498e-01 -1.26218957e-01
 73 2 119662 6.9801814927836058e+03 1.0941806711804673e+04 4.4132613747195158e-15 6.6032991520969963e+03 7.0485010496854802e+03 6.2043396053396746e+03 -999 2.91715163e-01 1.373275478e-01 -1.29346763e-01
 74 2 119662 6.6758010208657524e+03 1.0942576474239257e+04 4.0279920116068898e-15 6.1736423305709568e+03 6.5777058102156570e+03 9.2719760623104903e+03 -999 2.86845436e-01 1.296224210e-01 -1.30207804e-01
 75 2 119662 6.5273654705639237e+03 1.1010224801654167e+04 3.8054161779079189e-15 5.7633262573668690e+03 6.3714750580197342e+03 1.0146718885325196e+04 -999 2.84114384e-01 1.265660150e-01 -1.30183050e-01
 76 2 119662 5.5893247759262431e+03 1.0287130529705657e+04 3.6379662528140894e-15 4.9471632694916480e+03 5.5527690427781590e+03 1.0290837057352273e+04 -999 2.76426729e-01 1.197742702e-01 -1.29304495e-01
 77 2 119662 4.8621829422602241e+03 1.0502613816909694e+04 3.5511240950176208e-15 4.1609633346228920e+03 4.8451498821961559e+03 9.2694680898807655e+03 -999 2.65831692e-01 1.117315479e-01 -1.27001123e-01
 78 2 119662 4.4318990433879344e+03 1.0224056886219236e+04 3.4084109070752007e-15 3.5576502188839472e+03 4.4245884719986552e+03 6.9675375009349254e+03 -999 2.59182081e-01 1.064384269e-01 -1.24506229e-01
 79 2 119662 4.2293395398912498e+03 9.6462187926203460e+03 3.2527058529296151e-15 3.3639131627069924e+03 4.2240425629781303e+03 5.4139205518745393e+03 -999 2.57235948e-01 1.041153320e-01 -1.23320045e-01
 80 2 119662 4.1757077106029101e+03 8.9929270334452085e+03 3.2167926739191638e-15 3.3439341528008895e+03 4.1254582297270017e+03 4.7148244637276857e+03 -999 2.55955799e-01 1.015475169e-01 -1.22107902e-01
 81 2 119662 3.6798968761154274e+03 7.7601661657039258e+03 3.3011680791720876e-15 3.3401816875494424e+03 3.6268132664558461e+03 4.8566499521588294e+03 -999 2.57213454e-01 9.781892696e-02 -1.20937317e-01
 82 2 119662 3.5221893436570526e+03 6.5998227463350049e+03 3.5397564923289884e-15 3.5285153851079904e+03 3.4096307405863427e+03 5.1174301892467811e+03 -999 2.63612603e-01 9.294812783e-02 -1.20614070e-01
 83 2 119662 3.7203416661019778e+03 6.1834827656708803e+03 3.6543999640798320e-15 3.5129694906349241e+03 3.5556468141139662e+03 6.5965760252793470e+03 -999 2.74658391e-01 8.920686362e-02 -1.22367217e-01
 84 2 119662 4.0466811737185103e+03 6.4976042287128812e+03 3.6051155185979872e-15 3.5093341157711379e+03 3.8780852668288439e+03 1.0664084811083489e+04 -999 2.86281086e-01 8.640204678e-02 -1.25157120e-01
 85 2 119662 4.1883473410979441e+03 7.0063719275576723e+03 3.4557571720321574e-15 3.4701612209594136e+03 3.9885071890070658e+03 1.5960247525432747e+04 -999 2.95040834e-01 8.463141342e-02 -1.27687845e-01
 86 2 119662 3.7764481278952494e+03 5.8186331533889879e+03 3.6243566207250580e-15 3.1363478854643863e+03 3.8068297491263552e+03 3.5786098337335759e+04 -999 3.17709430e-01 8.109927941e-02 -1.35263039e-01
 87 2 119662 3.5503901625252438e+03 6.6656069505898295e+03 3.6922753654489945e-15 2.8746754758080720e+03 3.8468300301484182e+03 6.4548683059044546e+04 -999 3.39678457e-01 7.819652550e-02 -1.43883699e-01
 88 2 119662 3.2624620134522329e+03 9.1410428987027281e+03 3.4337809372310120e-15 2.7214426072732367e+03 4.5357714075552676e+03 9.2201832103253881e+04 -999 3.49991741e-01 7.690644094e-02 -1.48318347e-01
 89 2 119662 3.0631069973816552e+03 9.2646607421912795e+03 3.2820044910809056e-15 2.6562449630058122e+03 5.2736304307640521e+03 1.6893560823504665e+05 -999 3.55136225e-01 7.628117092e-02 -1.50552143e-01
 90 2 119662 2.9243768978367348e+03 8.7419495323115916e+03 3.3051437232493110e-15 2.6094982059228287e+03 5.3083253566437024e+03 1.4766407606043282e+05 -999 3.58377333e-01 7.589596103e-02 -1.51955186e-01
 91 2 119662 2.5638730374878228e+03 3.2710995744772299e+03 3.4997698021673114e-15 2.4835985496880271e+03 2.4671473581934852e+03 6.7391264261030170e+04 -999 3.74619546e-01 7.389332437e-02 -1.59000422e-01
 92 2 119662 2.4051066438640637e+03 2.7214212434209926e+03 3.7256611671869501e-15 2.3614103860342630e+03 2.2659412112114542e+03 3.7934252339816427e+04 -999 3.90615555e-01 7.206776667e-02 -1.65824856e-01
 93 2 119662 2.3057256250453097e+03 2.6247842045661523e+03 4.9445679796673675e-15 2.3119053608686763e+03 2.2745588691943190e+03 2.7924240358910043e+04 -999 4.07099597e-01 7.034092133e-02 -1.72510587e-01
 94 2 119662 2.1731202061517574e+03 3.4259245271376917e+03 1.2616005196832921e-14 2.2691444389514741e+03 3.6977653108797122e+03 2.7193294426511857e+04 -999 4.18137380e-01 6.927806106e-02 -1.76649714e-01
 95 2 119662 2.1308573772189839e+03 3.3282033843948066e+03 9.9533352171090332e-15 2.2200937949253639e+03 3.5692165237950953e+03 2.6818472633206573e+04 -999 4.21816177e-01 6.893689514e-02 -1.77940508e-01
 96 2 119662 1.8864408499892409e+03 2.2230672431803614e+03 1.8937289018370670e-13 1.6145550518221842e+03 1.7634025423948303e+03 2.5424185612574056e+04 -999 4.55371528e-01 6.631753718e-02 -1.88317817e-01
 97 2 119662 1.8185875705309736e+03 2.0803673497252607e+03 2.4796789050422017e-13 1.2509031127316350e+03 1.7131432960291484e+03 2.3000630893872756e+04 -999 4.92311272e-01 6.412864988e-02 -1.97314657e-01
 98 2 119662 1.8673616648990865e+03 1.9407130958764874e+03 2.3586679767083247e-13 9.5748685028010664e+02 1.8155316283453080e+03 1.9015649238902202e+04 -999 5.31299946e-01 6.249865716e-02 -2.04215243e-01
 99 2 119662 2.1018989749908769e+03 2.0373939693490438e+03 2.0544877049003722e-13 7.9696974730562795e+02 2.1375595677455935e+03 1.5136198277155783e+04 -999 5.66894580e-01 6.169982961e-02 -2.08363874e-01
 100 2 119662 2.4425295397465216e+03 2.3988170760308835e+03 1.8116584850177540e-13 6.8331893098291482e+02 2.6278477560333531e+03 1.2268881661598187e+04 -999 5.95215155e-01 6.164704471e-02 -2.10276295e-01
 101 2 119662 1.6764665728321404e+03 1.5035691210656203e+03 2.7130942260803959e-13 4.6541377613225723e+02 1.6645174888142217e+03 8.5416318601640432e+03 -999 6.43686015e-01 6.317505731e-02 -2.12010894e-01
 102 2 119662 1.4365871682426150e+03 1.2054195328807650e+03 3.5194565095441703e-13 3.2277245417047152e+02 1.4135408128209417e+03 6.3629534397480174e+03 -999 7.04948607e-01 6.568655526e-02 -2.11181837e-01
 103 2 119662 1.5216004032572971e+03 1.1254281050345319e+03 2.6787854388072991e-13 2.5722352497993853e+02 1.5124727205173895e+03 5.1551573278093492e+03 -999 7.58164647e-01 6.869303419e-02 -2.06907612e-01
 104 2 119662 1.5674999822945927e+03 1.0945147967403821e+03 2.1878371870637542e-13 2.1953749374562508e+02 1.5495015656483301e+03 4.4960522492468954e+03 -999 7.87123413e-01 7.061708801e-02 -2.02853255e-01
 105 2 119662 1.5261266902689206e+03 1.0627784380205471e+03 2.0386213931217958e-13 2.0025426077490954e+02 1.4937837787719236e+03 4.1227890434447054e+03 -999 8.10961666e-01 7.201598901e-02 -1.99118386e-01
 106 2 119662 8.8248336275069960e+02 8.4083430349696471e+02 4.9752298629831003e-13 1.9695395831554745e+02 8.3032007714471206e+02 4.2414219604839554e+03 -999 8.58891440e-01 7.126431277e-02 -1.92236323e-01
 107 2 119662 7.4831803632665333e+02 7.8621842106128463e+02 6.6983917544051783e-13 1.7769195742123065e+02 6.8645765052242007e+02 4.3787572647073248e+03 -999 8.84263665e-01 6.892125683e-02 -1.89890554e-01
 108 2 119662 6.8470819354988919e+02 7.6229536094947707e+02 7.5326289577569839e-13 1.7669791633369712e+02 6.1874525400043149e+02 5.4914811779583515e+03 -999 9.04836751e-01 6.669480081e-02 -1.88344849e-01
 109 2 119662 6.5533561600097141e+02 7.2412321105572096e+02 7.5035343065696662e-13 1.7460791038338402e+02 5.8845901136118073e+02 7.1826640366898464e+03 -999 9.23605180e-01 6.457629239e-02 -1.87099180e-01
 110 2 119662 6.5102055114180939e+02 7.4107515004301536e+02 7.5996951689521011e-13 1.7495635134243105e+02 5.8481606435467006e+02 8.5777430660896462e+03 -999 9.33776129e-01 6.341982921e-02 -1.86361393e-01
 111 2 119662 6.2652533727691343e+02 8.5765954553202630e+02 6.4519404011896450e-13 1.8352247411255308e+02 5.6301849138931595e+02 8.4441925027373272e+03 -999 9.43234961e-01 6.254598944e-02 -1.85677836e-01
 112 2 119662 6.0984702810975591e+02 9.2551767919358304e+02 7.0983293546844966e-13 2.0308934089913063e+02 5.4746881352968444e+02 1.7771245873314114e+04 -999 9.53926812e-01 6.158660868e-02 -1.84893710e-01
 113 2 119662 6.0268463738579601e+02 9.3872921608764614e+02 7.8542595686163262e-13 2.3085298201304172e+02 5.4009942415947683e+02 2.2168280931375888e+04 -999 9.65946372e-01 6.057195780e-02 -1.84038399e-01
 114 2 119662 6.2731467124511857e+02 8.8200177710320122e+02 9.1472203309524903e-13 2.5908308708546093e+02 5.6102428192116110e+02 2.0654762342403148e+04 -999 9.80956769e-01 5.937592694e-02 -1.82944243e-01
 115 2 119662 6.4829821181882687e+02 8.8120072747569418e+02 9.6997570263807185e-13 2.5933835563344672e+02 5.8109094471843946e+02 1.4448180978811504e+04 -999 9.88625379e-01 5.869583527e-02 -1.82124559e-01
 116 2 119662 6.4829821181882699e+02 9.2342186522158261e+02 9.9802294819437086e-13 2.6768110818997508e+02 5.8194540805018119e+02 7.1947589910278157e+03 -999 9.88625379e-01 5.869583527e-02 -1.82124559e-01
 117 2 119662 6.5334697750859482e+02 9.6015793689813427e+02 9.7798306875298903e-13 2.9099569472539247e+02 5.8868581041616142e+02 5.6855412976406842e+03 -999 9.92840171e-01 5.825471088e-02 -1.81780569e-01
 118 2 119662 6.5371532275444793e+02 8.4612030716364427e+02 7.6861852673005579e-13 2.4162164786157851e+02 5.8480284959891628e+02 6.8215129860583274e+03 -999 9.94650271e-01 5.810471696e-02 -1.81713731e-01
 119 2 119662 7.1073533138574294e+02 7.4019126995233194e+02 5.6401050806254955e-13 2.0777769590929310e+02 6.3788736651350825e+02 7.1506568241923869e+03 -999 9.97221965e-01 5.792639270e-02 -1.81683931e-01
 120 2 119662 7.8936582040151950e+02 6.6856089138139987e+02 4.2418952191971926e-13 1.9747417790392905e+02 7.1419466816561908e+02 8.5018024073991091e+03 -999 1.00048001e+00 5.773166971e-02 -1.81705955e-01
 121 2 119662 8.0289827991567006e+02 6.3685807497590429e+02 3.1788377860741322e-13 1.9437003617375410e+02 7.2702211525170287e+02 8.0860424938595288e+03 -999 1.00298681e+00 5.759636767e-02 -1.81740170e-01
 122 2 119662 8.0967265699088682e+02 6.0724343668468896e+02 2.6416313423364991e-13 1.9284175247939078e+02 7.3387978368444567e+02 8.0073869782762622e+03 -999 1.00603562e+00 5.741510862e-02 -1.81737709e-01
 123 2 119662 8.1143642270511384e+02 5.8321521914087896e+02 2.4733100787633684e-13 1.9123977080359987e+02 7.3690065299577418e+02 7.9696532899910917e+03 -999 1.00899698e+00 5.719996985e-02 -1.81654834e-01
 124 2 119662 8.1851257032763954e+02 5.6903237102811966e+02 2.3406725754803769e-13 1.8765581044514224e+02 7.4344349438332210e+02 7.8971210194937803e+03 -999 1.01164539e+00 5.695590045e-02 -1.81472011e-01
 125 2 119662 8.6085311781661619e+02 5.6507362560986303e+02 2.1811576815719710e-13 1.8388037482897622e+02 7.8375934638373110e+02 7.8666742797603747e+03 -999 1.01384639e+00 5.673100171e-02 -1.81277964e-01
 126 2 119662 8.4369684089404325e+02 5.4967909725763911e+02 1.5169674239224796e-13 1.7487654892542727e+02 7.6881599049538647e+02 7.7466303958901117e+03 -999 1.01591313e+00 5.644737313e-02 -1.80922026e-01
 127 2 119662 8.2802582982871081e+02 5.3718139553942638e+02 1.1166671353380753e-13 1.6607307879667670e+02 7.5610121817157176e+02 7.8189281546381926e+03 -999 1.01880703e+00 5.607760585e-02 -1.80471497e-01
 128 2 119662 8.4059730462170273e+02 5.2910284509562041e+02 9.5368415542196851e-14 1.5641823970525479e+02 7.6676960569069388e+02 7.7447423505832194e+03 -999 1.02271301e+00 5.553219472e-02 -1.79723108e-01
 129 2 119662 8.7477247797680513e+02 5.2374914835946049e+02 8.3067548149139120e-14 1.5126267401372300e+02 8.0484995392617145e+02 7.7240177816044506e+03 -999 1.02514579e+00 5.523622664e-02 -1.79341510e-01
 130 2 119662 8.5983512247438898e+02 5.1758544872452796e+02 7.3036044090816674e-14 1.4612760008885422e+02 7.9794895377723356e+02 7.7362603119878340e+03 -999 1.02749167e+00 5.498637748e-02 -1.79032558e-01
 131 2 119662 8.1604213638569365e+02 5.0953352809725720e+02 6.2984917738463452e-14 1.4490251393342325e+02 7.4170622969576732e+02 7.7478266889173119e+03 -999 1.03057232e+00 5.462999138e-02 -1.78528866e-01
 132 2 119662 8.5477158096330925e+02 5.1059182449326084e+02 7.3588511835368183e-14 1.4173669590194874e+02 7.8190485813885869e+02 7.7756613813740569e+03 -999 1.03421167e+00 5.428152356e-02 -1.78004484e-01
 133 2 119662 8.0781796225225071e+02 5.0290845453265763e+02 7.7379717111775647e-14 1.3784324705700266e+02 7.3977104737476611e+02 7.7318874732062486e+03 -999 1.03765450e+00 5.399146825e-02 -1.77520483e-01
 134 2 119662 8.4926444776448341e+02 5.1210362148576098e+02 8.2492810229044094e-14 1.4268867100483433e+02 7.7192727762194954e+02 7.7503624422365911e+03 -999 1.04109664e+00 5.368228148e-02 -1.76901744e-01
 135 2 119662 8.5101943191355167e+02 5.0728056865804496e+02 8.5774052005847175e-14 1.3730708973293682e+02 7.8402695531170946e+02 7.6418704805050229e+03 -999 1.04310757e+00 5.352590884e-02 -1.76549596e-01
 136 2 119662 7.5202554892902845e+02 4.9083504961596913e+02 7.4818436476882959e-14 1.3551927731206996e+02 6.8034898020199626e+02 7.4568690463221983e+03 -999 1.04555829e+00 5.333539122e-02 -1.76085936e-01
 137 2 119662 7.3385851460203844e+02 4.8173501196575080e+02 9.7927385130051826e-14 1.3173418974146495e+02 6.6028056653595968e+02 7.4182696041696063e+03 -999 1.04938776e+00 5.310216572e-02 -1.75493480e-01
 138 2 119662 6.7288921861409005e+02 4.6872852458107360e+02 1.0765836038842544e-13 1.2882217339338291e+02 6.0385417750856823e+02 7.3143138850128798e+03 -999 1.05339755e+00 5.291127609e-02 -1.75013904e-01
 139 2 119662 6.6873922782867282e+02 4.6389949001947417e+02 1.0787621400373282e-13 1.2950494748133269e+02 5.9468524438942950e+02 7.2890755857159193e+03 -999 1.05563780e+00 5.281543093e-02 -1.74770284e-01
 140 2 119662 6.8163773497108957e+02 4.7488238747179696e+02 1.0639318892930547e-13 1.2421957166770225e+02 6.1375901288499244e+02 7.3942646952771920e+03 -999 1.05857647e+00 5.267914540e-02 -1.74418248e-01
 141 2 119662 6.2837964478384822e+02 4.5669321919085274e+02 7.1232824209383134e-14 1.1955098675168900e+02 5.5448041854034102e+02 7.5691349117419295e+03 -999 1.06126708e+00 5.267097589e-02 -1.74427558e-01