TITLE = "005.01 ALPHA 1.36 GRIDLEVEL 2"

VARIABLES = "ITERATION"  "GRID_LEVEL"  "GRID_SIZE"  "CONTINUITY"  "MOMENTUMX"  "MOMENTUMY"  "MOMENTUMZ"  "ENERGY"  "TURB1"  "TURB2"  "CL_TOT"  "CD_TOT"  "CM_TOT"

DATASETAUXDATA ParticipantID   = "005"
DATASETAUXDATA SubmissionDate  = "10-31-2024"
DATASETAUXDATA Name            = "Jeffrey A. Housman"
DATASETAUXDATA Email           = "jeffrey.a.housman@nasa.gov"
DATASETAUXDATA Institution     = "NASA Ames Research Center"
DATASETAUXDATA SolverName      = "LAVA Curvilinear"
DATASETAUXDATA BasicAlgorithm  = "RANS"
DATASETAUXDATA TurbulenceModel = "SA-neg"
DATASETAUXDATA GridId          = "Multiblock"
DATASETAUXDATA Discretization  = "Finite difference"
DATASETAUXDATA Order           = "2"
DATASETAUXDATA DistanceCalc    = "Exact"
DATASETAUXDATA Notes           = " "

ZONE T = "005.01 - Alpha 1.36 - Grid Level 2"
AUXDATA Tstatic         = "271.0"
AUXDATA Deltat          = "-999"
AUXDATA GridFileName    = "ONERA-OAT15A_230mmChord_780mmSpan_upZ_2024_06_25-Structured_23mm_Level-2.x"
AUXDATA Misc            = " "
 0 2 119662 1.6489367092191125e+05 3.4056104440228263e+05 3.0559167587723573e-14 1.3644493557907478e+05 1.6295039264119510e+05 4.8399170311316213e+05 -999 3.64583225e-03 4.525052575e-01 -8.58551516e-05
 1 2 119662 2.2770378705446015e+05 2.7179948032441270e+05 2.7476329929947411e-14 1.1691561444883420e+05 2.1807492903446924e+05 3.1226769998908968e+05 -999 2.10961737e-02 4.450185291e-01 -1.11079551e-02
 2 2 119662 2.8072618334338500e+05 2.4340274180161243e+05 2.5127516989698920e-14 1.2940084496060388e+05 2.6686250024657825e+05 2.0117844291710274e+05 -999 3.82558670e-02 4.478676031e-01 -2.25807446e-02
 3 2 119662 3.3259870830511395e+05 2.2508809181162965e+05 2.3313388920154080e-14 1.5309867331666074e+05 3.1629161950049031e+05 1.2878628553102740e+05 -999 5.27808302e-02 4.560463030e-01 -3.22389889e-02
 4 2 119662 3.8414776213293849e+05 2.0883173032363612e+05 2.1905247142333607e-14 1.8198462166648274e+05 3.6888412024319114e+05 8.1219955009126323e+04 -999 6.75757067e-02 4.673299679e-01 -4.10178403e-02
 5 2 119662 4.3317040588726877e+05 2.1100584851694290e+05 2.0797618276948708e-14 2.1269410146192752e+05 4.2254897249974019e+05 4.1676530589347807e+04 -999 7.90535661e-02 4.790202577e-01 -4.76583189e-02
 6 2 119662 3.9504883091004600e+05 2.5169644249746986e+05 1.9917510552175000e-14 2.2582774865275421e+05 3.8742091570103657e+05 3.3854930642563937e+04 -999 8.66194132e-02 4.842779432e-01 -5.27400560e-02
 7 2 119662 3.9170614597967657e+05 2.7240434361631499e+05 1.9119234985292373e-14 2.3069784847286771e+05 3.8074750064190192e+05 2.8147213406703722e+04 -999 9.26042224e-02 4.852517756e-01 -5.72163068e-02
 8 2 119662 4.2793109095324576e+05 2.7107874601634574e+05 1.8566299754029365e-14 2.2782732675657014e+05 4.3043927260453126e+05 2.4103380981206799e+04 -999 9.76433510e-02 4.805937924e-01 -6.05403521e-02
 9 2 119662 4.4778531198672747e+05 2.5152026611921529e+05 1.8169176157215936e-14 2.2890021038832719e+05 4.5398610432417464e+05 2.1275222795073321e+04 -999 1.02752861e-01 4.723692371e-01 -6.32423234e-02
 10 2 119662 4.6444622081942990e+05 2.4926507400443984e+05 1.7972255379052091e-14 2.2330877870271049e+05 4.8141910742338584e+05 1.9066532863666940e+04 -999 1.06387331e-01 4.659875919e-01 -6.49487416e-02
 11 2 119662 3.8293540079624997e+05 2.1439084924225253e+05 1.7773349925372770e-14 2.0531864905536032e+05 3.9099599883928179e+05 1.7134094346182788e+04 -999 1.10638974e-01 4.580856210e-01 -6.69755827e-02
 12 2 119662 3.6215078083754395e+05 2.1700300128781857e+05 1.7638698987653111e-14 1.9783218107985504e+05 3.6449916266710230e+05 1.5559865709685488e+04 -999 1.13891538e-01 4.517365609e-01 -6.85878038e-02
 13 2 119662 3.4330623108737078e+05 1.9096356911490156e+05 1.7586160849758532e-14 1.8792345981425387e+05 3.4227657336732914e+05 1.4255191690874561e+04 -999 1.16347508e-01 4.462695244e-01 -6.99341690e-02
 14 2 119662 3.7691913531001739e+05 2.0040556387711014e+05 1.7602889827100729e-14 1.8625655166347462e+05 3.8831043676168442e+05 1.3138754352095295e+04 -999 1.17949183e-01 4.418662780e-01 -7.09406395e-02
 15 2 119662 3.4064763078394678e+05 1.6809546636091283e+05 1.7578646578072049e-14 1.7529390648920217e+05 3.4699155614646128e+05 1.2179171097427798e+04 -999 1.19032627e-01 4.381931405e-01 -7.17173925e-02
 16 2 119662 3.1791369796312373e+05 1.7601003780186374e+05 1.7470318726184089e-14 1.6848396233429233e+05 3.2429837065134756e+05 1.1132991859414537e+04 -999 1.19965008e-01 4.343833122e-01 -7.24343331e-02
 17 2 119662 2.8261337355460267e+05 1.6878656942655137e+05 1.7341754168241137e-14 1.5464049490186619e+05 2.8815939410973777e+05 1.0254593499292783e+04 -999 1.20906146e-01 4.301713567e-01 -7.31619539e-02
 18 2 119662 2.9453428227383789e+05 1.6440478365449098e+05 1.7241071520445104e-14 1.5170535068794113e+05 2.9985035784640250e+05 9.4827003747677045e+03 -999 1.22020601e-01 4.248690983e-01 -7.39767057e-02
 19 2 119662 2.6581596642501513e+05 1.4552633690786699e+05 1.7121788472045092e-14 1.4020485075091015e+05 2.7075968203714740e+05 8.8199453870103316e+03 -999 1.22707099e-01 4.213357426e-01 -7.44228304e-02
 20 2 119662 3.1284901100371871e+05 1.7302003631027450e+05 1.6997165396105096e-14 1.4681542057971423e+05 3.2870798817536270e+05 8.2555224542937522e+03 -999 1.23488719e-01 4.170035736e-01 -7.48952805e-02
 21 2 119662 2.5861115147031550e+05 1.5925821833031479e+05 1.6858441832236318e-14 1.3084631480911745e+05 2.7439084779677389e+05 7.6260997385037181e+03 -999 1.24027114e-01 4.133000873e-01 -7.51989013e-02
 22 2 119662 2.1705577248421247e+05 1.2979381454533264e+05 1.6696424885672400e-14 1.1767058021724960e+05 2.2225035702207996e+05 7.0680616431895578e+03 -999 1.24612104e-01 4.088055596e-01 -7.55261359e-02
 23 2 119662 1.9936451142263701e+05 1.2452003481537127e+05 1.6545057629917896e-14 1.0947324863370134e+05 2.0114417655375172e+05 6.5784526574854817e+03 -999 1.25084558e-01 4.046862913e-01 -7.57909636e-02
 24 2 119662 2.2743368980471988e+05 1.2742071213299611e+05 1.6421278786409584e-14 1.0909084407987643e+05 2.3682394333709337e+05 6.1439066587327434e+03 -999 1.25502404e-01 4.006362272e-01 -7.60267338e-02
 25 2 119662 2.0367381635014218e+05 1.0577700496095394e+05 1.6351428349433671e-14 1.0126617034013938e+05 2.1017831011245574e+05 5.7710363815895071e+03 -999 1.25770348e-01 3.977369374e-01 -7.61802013e-02
 26 2 119662 1.8257197343202136e+05 1.0731528363196074e+05 1.6205715641823963e-14 9.4830540732463560e+04 1.8953000995057763e+05 5.3240030353770035e+03 -999 1.26007562e-01 3.945512088e-01 -7.63185764e-02
 27 2 119662 1.5617043755844596e+05 1.0095843716541622e+05 1.6016234224797212e-14 8.5268666815525896e+04 1.6153102481076412e+05 4.9227092435038385e+03 -999 1.26265368e-01 3.907912876e-01 -7.64747723e-02
 28 2 119662 1.4659391462833824e+05 9.4481803378157521e+04 1.5817820495495772e-14 7.8446590336249195e+04 1.4934279637053746e+05 4.5697619071362715e+03 -999 1.26508030e-01 3.869117143e-01 -7.66294238e-02
 29 2 119662 1.5818730007451816e+05 9.1869581283183230e+04 1.5623211672522605e-14 7.6238598058639473e+04 1.6244414962025828e+05 4.2622233364589138e+03 -999 1.26718530e-01 3.832387376e-01 -7.67699282e-02
 30 2 119662 1.4844378025198414e+05 8.4365315910438221e+04 1.5491007472408562e-14 7.1701349459573306e+04 1.5497031484974906e+05 4.0012001205098031e+03 -999 1.26849670e-01 3.807764393e-01 -7.68597574e-02
 31 2 119662 1.2751605211483550e+05 7.9177459056241438e+04 1.5297803731942505e-14 6.5695454123733813e+04 1.3377447796076973e+05 3.7057945963127431e+03 -999 1.26976665e-01 3.778743387e-01 -7.69486612e-02
 32 2 119662 1.0633791011729067e+05 7.4916133214098169e+04 1.5055874283903908e-14 5.8923041588868662e+04 1.1026726899885302e+05 3.4360256046386712e+03 -999 1.27123631e-01 3.744108983e-01 -7.70526587e-02
 33 2 119662 9.8293610000017041e+04 7.0720902943012901e+04 1.4808878435936239e-14 5.3840418202371453e+04 9.9870913979290548e+04 3.1957238460574990e+03 -999 1.27264748e-01 3.709708756e-01 -7.71537392e-02
 34 2 119662 1.0738951986220012e+05 7.0750370418462218e+04 1.4588768002768904e-14 5.2004974728737849e+04 1.1126583965263360e+05 2.9865299393518835e+03 -999 1.27387085e-01 3.678955915e-01 -7.72416789e-02
 35 2 119662 1.0506370093675281e+05 6.5715594338986237e+04 1.4424361869049481e-14 5.0044455851579522e+04 1.0829721372312056e+05 2.8046092989067879e+03 -999 1.27480481e-01 3.654954625e-01 -7.73081479e-02
 36 2 119662 8.9486807462574274e+04 6.4365864130161899e+04 1.4221792160550234e-14 4.5672215302614830e+04 9.4369925789041517e+04 2.5928166690113112e+03 -999 1.27560775e-01 3.629984524e-01 -7.73653039e-02
 37 2 119662 7.1983957215645001e+04 5.8300831501469176e+04 1.3989430532184364e-14 4.0435637905314623e+04 7.5716044069207419e+04 2.4020974460382877e+03 -999 1.27654364e-01 3.601054254e-01 -7.74316199e-02
 38 2 119662 6.3028597927342023e+04 5.3270683734351995e+04 1.3717824520538820e-14 3.6165829262780564e+04 6.3969553306154012e+04 2.2307764227374355e+03 -999 1.27757711e-01 3.569430264e-01 -7.75042205e-02
 39 2 119662 6.6663954124650307e+04 5.1948789184459492e+04 1.3447224462406248e-14 3.4171374008803810e+04 6.8475224022407026e+04 2.0804996019431596e+03 -999 1.27857073e-01 3.539244373e-01 -7.75732642e-02
 40 2 119662 6.5941120446354500e+04 4.9934200279475925e+04 1.3257423333693038e-14 3.2786327296394709e+04 6.8449667037858948e+04 1.9518360380189258e+03 -999 1.27929323e-01 3.517254993e-01 -7.76228955e-02
 41 2 119662 5.6116035653856103e+04 4.7601271372252268e+04 1.3043137460790471e-14 3.0153113962786530e+04 5.9374527455063660e+04 1.7895369013577460e+03 -999 1.27990822e-01 3.494137174e-01 -7.76667144e-02
 42 2 119662 4.4570932853425547e+04 4.4809679660697875e+04 1.2783376309545657e-14 2.7082726290525781e+04 4.7030053934675867e+04 1.6440318656052700e+03 -999 1.28065228e-01 3.466297619e-01 -7.77201827e-02
 43 2 119662 3.8105835936244999e+04 4.1832206796426806e+04 1.2490031787285312e-14 2.4384123891272819e+04 3.8771190115371319e+04 1.5155604953826680e+03 -999 1.28148044e-01 3.435585452e-01 -7.77796875e-02
 44 2 119662 3.8331820406971274e+04 4.0399911075457334e+04 1.2219733241248552e-14 2.2913161864822698e+04 3.9160677508528461e+04 1.4060548767695402e+03 -999 1.28222871e-01 3.408167376e-01 -7.78329074e-02
 45 2 119662 3.9744293726015079e+04 4.0323308366272315e+04 1.1997554279058360e-14 2.2099248519698489e+04 4.1569087697577161e+04 1.3052117134356495e+03 -999 1.28286801e-01 3.385025161e-01 -7.78776234e-02
 46 2 119662 3.3870544282524264e+04 3.7877937436425782e+04 1.1782685308046921e-14 2.0677876298369152e+04 3.5824926600235056e+04 1.1833501230806733e+03 -999 1.28336957e-01 3.362134897e-01 -7.79149270e-02
 47 2 119662 2.7500978288939521e+04 3.5745854355994474e+04 1.1509713836238185e-14 1.9113939263009830e+04 2.8850396285404149e+04 1.0765729589922223e+03 -999 1.28397286e-01 3.334708296e-01 -7.79600884e-02
 48 2 119662 2.3306395031230830e+04 3.3868456041510042e+04 1.1210480443539872e-14 1.7629546258045833e+04 2.3591144480294548e+04 9.8337668617759539e+02 -999 1.28467456e-01 3.303188818e-01 -7.80119802e-02
 49 2 119662 2.2298122162436492e+04 3.2544711562223958e+04 1.0929702511250080e-14 1.6593761860228664e+04 2.2313727804401267e+04 9.0495996432012919e+02 -999 1.28535633e-01 3.273146599e-01 -7.80607727e-02
 50 2 119662 2.2080871189573601e+04 3.1702453741551541e+04 1.0672132511725699e-14 1.5871151655823833e+04 2.2311198288855270e+04 8.3834195363359561e+02 -999 1.28596727e-01 3.246736652e-01 -7.81026790e-02
 51 2 119662 1.9677124903773725e+04 3.0381954951261490e+04 1.0435747472797853e-14 1.5042781530157599e+04 1.9920129571017555e+04 7.5101433343252393e+02 -999 1.28638017e-01 3.220593526e-01 -7.81320063e-02
 52 2 119662 1.7128982368516736e+04 2.8989345423535673e+04 1.0150944878767537e-14 1.4089355055100723e+04 1.7158858151269193e+04 6.7900075196096554e+02 -999 1.28685045e-01 3.189137384e-01 -7.81644510e-02
 53 2 119662 1.5251131400350323e+04 2.7569206675432462e+04 9.8072903457729693e-15 1.3072169701447185e+04 1.5003238686400289e+04 6.1907404911772619e+02 -999 1.28737381e-01 3.152283431e-01 -7.81971256e-02
 54 2 119662 1.4309172211761670e+04 2.6381715963396276e+04 9.4773390836585559e-15 1.2194451461240840e+04 1.4046811819558112e+04 5.6980761088569523e+02 -999 1.28786199e-01 3.116193356e-01 -7.82217815e-02
 55 2 119662 1.3736212292263361e+04 2.5427602396530499e+04 9.1793954017959555e-15 1.1473377816073529e+04 1.3627825425664538e+04 5.2883694159343258e+02 -999 1.28828844e-01 3.083278355e-01 -7.82370623e-02
 56 2 119662 1.2608586820810571e+04 2.4340127401172227e+04 8.8913751378873364e-15 1.0724781042941690e+04 1.2639452151411944e+04 4.8278996955322782e+02 -999 1.28847258e-01 3.047818746e-01 -7.82226419e-02
 57 2 119662 1.1458055915983377e+04 2.3117789311155520e+04 8.5660152303067971e-15 9.8648038171358567e+03 1.1655965672519591e+04 4.4822605928915357e+02 -999 1.28866757e-01 3.003498587e-01 -7.81913327e-02
 58 2 119662 1.0577883966611984e+04 2.1858382774054855e+04 8.1995259278109829e-15 8.9959974889635341e+03 1.1019408365989937e+04 4.2395819125068368e+02 -999 1.28890554e-01 2.951518202e-01 -7.81354491e-02
 59 2 119662 1.0091510635667062e+04 2.0796150131158483e+04 7.8564912357445527e-15 8.3219335634815470e+03 1.0819776676493662e+04 4.0559390480304126e+02 -999 1.28922855e-01 2.900665258e-01 -7.80610896e-02
 60 2 119662 9.8610876033849254e+03 1.9937042561352300e+04 7.5756729868331184e-15 7.8498010180587007e+03 1.0857126309832442e+04 3.9023970046709394e+02 -999 1.28969036e-01 2.853002823e-01 -7.79772942e-02
 61 2 119662 9.4356969299986213e+03 1.8959383033331189e+04 7.2731707302910712e-15 7.3734623452415080e+03 1.0709191684015048e+04 3.7459731440707981e+02 -999 1.29059920e-01 2.795052270e-01 -7.78353629e-02
 62 2 119662 9.2421109434982791e+03 1.7892475539585215e+04 6.9560237584870270e-15 7.0317867888442979e+03 1.0754267749866702e+04 3.7164165396653453e+02 -999 1.29257306e-01 2.719571286e-01 -7.76441946e-02
 63 2 119662 9.3775898617544535e+03 1.6902833009102149e+04 6.6740635575731305e-15 6.9485288111330474e+03 1.1030942621465285e+04 3.7751923304713881e+02 -999 1.29629714e-01 2.632208706e-01 -7.74338262e-02
 64 2 119662 9.6694509764154227e+03 1.6136001254971283e+04 6.4586055391926768e-15 7.0469831950779571e+03 1.1374546940402457e+04 3.8399725439952391e+02 -999 1.30181104e-01 2.547468890e-01 -7.72728075e-02
 65 2 119662 9.9631833721855201e+03 1.5520823031251677e+04 6.3260920249422710e-15 7.1843673268399070e+03 1.1673649894192362e+04 3.9164749998755821e+02 -999 1.30913456e-01 2.465585738e-01 -7.71907715e-02
 66 2 119662 1.0036794753721690e+04 1.4636195587062177e+04 6.1727949855693972e-15 6.9967653557548019e+03 1.1701417704104128e+04 4.0755926609492047e+02 -999 1.32411181e-01 2.351198291e-01 -7.73192096e-02
 67 2 119662 1.0052438237406897e+04 1.3767565276485595e+04 6.0997967489543917e-15 6.7503285739723233e+03 1.1574789040260051e+04 4.5835269375756718e+02 -999 1.35055002e-01 2.197793389e-01 -7.78758056e-02
 68 2 119662 9.9030354846765294e+03 1.3244293275190548e+04 5.9540461598484422e-15 6.4704507151655071e+03 1.1236847863214678e+04 5.5328530617669821e+02 -999 1.38540195e-01 2.043763183e-01 -7.90743187e-02
 69 2 119662 9.6347318221272144e+03 1.2951819928832221e+04 5.7849751884400509e-15 6.2684602320170088e+03 1.0766230008327275e+04 7.7671276973078966e+02 -999 1.42409748e-01 1.902263068e-01 -8.09082801e-02
 70 2 119662 9.2974643454241086e+03 1.2803462039895401e+04 5.5650862666285928e-15 6.1846308814660333e+03 1.0220417307114682e+04 1.2447363968148611e+03 -999 1.46433459e-01 1.768893968e-01 -8.33768364e-02
 71 2 119662 8.4223796276382436e+03 1.1637403416136316e+04 5.2177122843321343e-15 6.0444020681828333e+03 9.0133632485595135e+03 2.1927564885371498e+03 -999 1.52206897e-01 1.570482561e-01 -8.84090388e-02
 72 2 119662 7.5221586633140332e+03 1.0924036104801502e+04 4.7527435070378756e-15 5.9901999191817304e+03 7.8345215914043774e+03 3.6651884254962370e+03 -999 1.55441984e-01 1.391447042e-01 -9.42134356e-02
 73 2 119662 6.7835047782669581e+03 1.0436599838396483e+04 4.3469976338765401e-15 5.8582448558609940e+03 6.8921116843027021e+03 6.1024498083794151e+03 -999 1.54410411e-01 1.250370669e-01 -9.92093971e-02
 74 2 119662 6.4406140179460772e+03 1.0536139362051672e+04 4.0140127654211951e-15 5.3311316617084503e+03 6.3448660277522376e+03 9.8366818502837068e+03 -999 1.49381337e-01 1.141791497e-01 -1.02525331e-01
 75 2 119662 6.2891358415617069e+03 1.0618080659406860e+04 3.7528256682549480e-15 4.8657956996944577e+03 6.1130913265664103e+03 1.0793173577929620e+04 -999 1.46795716e-01 1.113576747e-01 -1.03009020e-01
 76 2 119662 5.2898512613510002e+03 9.9000501076654436e+03 3.5904732272520223e-15 3.9799935588210469e+03 5.2187658986192901e+03 1.0847501686503643e+04 -999 1.38890411e-01 1.049768763e-01 -1.03353535e-01
 77 2 119662 4.6312560611730250e+03 9.6922617118815670e+03 3.5068745529890520e-15 3.2935039040622337e+03 4.5986353242880177e+03 9.4387639857838603e+03 -999 1.30663656e-01 9.937302479e-02 -1.02851787e-01
 78 2 119662 4.2490894504300977e+03 9.0957744375065486e+03 3.3845843313763941e-15 2.9175690861739977e+03 4.2255704557919989e+03 7.3360950242334375e+03 -999 1.25800228e-01 9.557897362e-02 -1.02165211e-01
 79 2 119662 4.0682922124896941e+03 8.5074671844898676e+03 3.2324466117907952e-15 2.9156561161747836e+03 4.0277358035526554e+03 5.9894032457162120e+03 -999 1.24519778e-01 9.377742446e-02 -1.01949500e-01
 80 2 119662 4.0121194765304413e+03 7.8131260578771144e+03 3.2527875557289822e-15 3.1499005332560573e+03 3.9135489389583358e+03 5.3223394646619945e+03 -999 1.23903336e-01 9.144963983e-02 -1.01902452e-01
 81 2 119662 3.4893070535824422e+03 6.5782804020950616e+03 3.3915550286288753e-15 3.1008083429218982e+03 3.3883214502248620e+03 4.9200103495078629e+03 -999 1.27641291e-01 8.772860258e-02 -1.03257237e-01
 82 2 119662 3.6303858177924349e+03 5.9327160411315626e+03 3.6830514307588032e-15 3.2625928700567520e+03 3.4814929088440654e+03 5.9112437960543157e+03 -999 1.38787288e-01 8.303372943e-02 -1.07337139e-01
 83 2 119662 4.1975597028709908e+03 6.8424896384988970e+03 3.8020107532112109e-15 3.4927956103308170e+03 4.0649476460551123e+03 1.3558871265619800e+04 -999 1.55079503e-01 7.895793211e-02 -1.14018545e-01
 84 2 119662 4.8978669542983635e+03 1.0479108667025992e+04 3.7950071546878381e-15 3.4992912991936996e+03 5.0405460186573591e+03 3.6306771230907405e+04 -999 1.72959321e-01 7.544890346e-02 -1.22471313e-01
 85 2 119662 5.3142841698447901e+03 1.2257411162305847e+04 3.5383776607933248e-15 3.3674686269893518e+03 7.6425683702766628e+03 8.1492397039238422e+04 -999 1.80772254e-01 7.417231525e-02 -1.26704117e-01
 86 2 119662 3.9578128258013867e+03 6.8166034027456699e+03 3.5149716776746271e-15 2.9624894269516640e+03 4.1627458478696890e+03 1.1366555168163942e+05 -999 1.93701208e-01 7.235207957e-02 -1.33996038e-01
 87 2 119662 3.4601613351461106e+03 5.4028228080982572e+03 3.5481396337665988e-15 3.5814626019785878e+03 3.8923563025579824e+03 1.7081752034459586e+05 -999 2.05208916e-01 7.076912482e-02 -1.41130008e-01
 88 2 119662 3.2520771028869644e+03 7.5470148976263563e+03 3.3253293237840104e-15 2.9578974848245734e+03 3.9131340988884158e+03 1.9738048704790443e+05 -999 2.07770938e-01 7.033069277e-02 -1.42830135e-01
 89 2 119662 3.1604119116794409e+03 9.8318369669181448e+03 3.3322854904724133e-15 2.6811284131368684e+03 4.5639773735585241e+03 1.8942303434683342e+05 -999 2.09044812e-01 7.009816193e-02 -1.43685010e-01
 90 2 119662 3.1061381190202774e+03 1.1160099289427564e+04 3.4908233843429913e-15 2.6688437030188438e+03 5.2165184605550321e+03 9.3005002285988507e+04 -999 2.09841352e-01 6.994934542e-02 -1.44220619e-01
 91 2 119662 2.7154003365299363e+03 3.3380050324552112e+03 3.4932279356792433e-15 2.4712377998473235e+03 2.7101353524431611e+03 6.8867322861339941e+04 -999 2.21704972e-01 6.772131907e-02 -1.52115089e-01
 92 2 119662 2.4705491929807281e+03 2.8608805791756881e+03 3.7129723700318704e-15 2.4074784517475623e+03 2.3382341754772510e+03 4.4418343408370471e+04 -999 2.32947565e-01 6.527950833e-02 -1.59515453e-01
 93 2 119662 2.3634595089466243e+03 3.1383066699874230e+03 4.8491285590079011e-15 2.4177999376528151e+03 2.6189436585539247e+03 3.4486071711554956e+04 -999 2.44173412e-01 6.259186973e-02 -1.66268550e-01
 94 2 119662 2.2974929199065614e+03 3.6540198337340717e+03 5.4256511522588329e-15 2.3367868584182720e+03 3.2628764415992118e+03 3.2481570005209440e+04 -999 2.47367527e-01 6.185697600e-02 -1.67901372e-01
 95 2 119662 2.2590592781410078e+03 3.4415076493908141e+03 4.7006573131567041e-15 2.3098599958123032e+03 3.0350792585510517e+03 3.1347158065491436e+04 -999 2.49436167e-01 6.138572211e-02 -1.68909890e-01
 96 2 119662 1.9306149198234843e+03 2.4716594565789537e+03 3.6189061693584180e-15 1.6381555647972793e+03 1.8208152644925726e+03 3.8410052602749594e+04 -999 2.73029658e-01 5.660433066e-02 -1.78076212e-01
 97 2 119662 1.8550708408365376e+03 2.1897551311409375e+03 3.7163897044206421e-15 1.2527568420324455e+03 1.7633983942441325e+03 3.0935699611118707e+04 -999 2.97199742e-01 5.255615381e-02 -1.84817312e-01
 98 2 119662 1.9032694253375116e+03 1.9863036444195945e+03 3.8020000363510133e-15 1.0184163333182917e+03 1.8478504568869434e+03 2.3803406001481602e+04 -999 3.15728610e-01 5.002943181e-02 -1.88622216e-01
 99 2 119662 2.0015649280636676e+03 1.8601558623984238e+03 4.1189227190857408e-15 8.8176373082133625e+02 1.9828651739334409e+03 1.5208734501817353e+04 -999 3.29135857e-01 4.841957876e-02 -1.90745744e-01
 100 2 119662 2.1131383805897012e+03 1.8029957916878302e+03 4.6111736617581237e-15 7.9942417380544975e+02 2.1264241495735637e+03 1.2673743734125932e+04 -999 3.38937241e-01 4.736528746e-02 -1.92034312e-01
 101 2 119662 1.7752664792393232e+03 1.6070163436716653e+03 4.6455697346199570e-14 6.3993700019090090e+02 1.7670547565394670e+03 9.5844022934634613e+03 -999 3.58167705e-01 4.580698635e-02 -1.93743152e-01
 102 2 119662 1.5682293529810377e+03 1.4377272740952187e+03 8.7963148051001561e-14 4.9080915645432987e+02 1.5492662490402049e+03 7.7868659820960274e+03 -999 3.82253443e-01 4.406977194e-02 -1.95399486e-01
 103 2 119662 1.5169321567327056e+03 1.3276317203835133e+03 1.1212703990485234e-13 3.9525715802765086e+02 1.5079204713264232e+03 6.2506046883091212e+03 -999 4.04040384e-01 4.273712573e-02 -1.96271780e-01
 104 2 119662 1.5654476440564695e+03 1.2683348954253784e+03 1.2206269945600309e-13 3.4419493653221826e+02 1.5794533740329637e+03 4.9158787676891534e+03 -999 4.19649849e-01 4.192839647e-02 -1.96493175e-01
 105 2 119662 1.6611171379914665e+03 1.2497552267420285e+03 1.2626543133674685e-13 3.1950218886008332e+02 1.7041926531341239e+03 4.0269739045942797e+03 -999 4.30550683e-01 4.145878123e-02 -1.96468516e-01
 106 2 119662 1.3061936227560202e+03 1.1256940411389380e+03 1.3788293137463183e-13 2.5780829733606947e+02 1.2995267452125183e+03 3.3473752993593084e+03 -999 4.59565850e-01 4.067900706e-02 -1.95271125e-01
 107 2 119662 1.0865730150135755e+03 1.0015618384916002e+03 1.8549672093599503e-13 2.1506770649928993e+02 1.0514937622102209e+03 3.0135203511157479e+03 -999 4.97970957e-01 3.990742717e-02 -1.92921344e-01
 108 2 119662 1.0222726642100826e+03 9.1863230553364735e+02 1.8631482631298718e-13 1.8503444051115918e+02 9.8804952412534328e+02 2.7413250215985859e+03 -999 5.25210889e-01 3.963264450e-02 -1.90405501e-01
 109 2 119662 1.0666694323253214e+03 8.6657192126018685e+02 1.7301720466788357e-13 1.7120959125756571e+02 1.0434326055227273e+03 2.7422255904922722e+03 -999 5.48186442e-01 3.952793903e-02 -1.87805447e-01
 110 2 119662 1.1401692498959897e+03 8.5400162366706991e+02 1.5918908575321715e-13 1.5961601507398819e+02 1.1225923818427027e+03 3.1096599551814802e+03 -999 5.63010836e-01 3.950985324e-02 -1.85813448e-01
 111 2 119662 9.6498183635893270e+02 8.2995512794708623e+02 1.3374450392394761e-13 1.5221797513371496e+02 9.3258275404632593e+02 3.4922525463453803e+03 -999 5.78580885e-01 3.927055764e-02 -1.83710291e-01
 112 2 119662 8.1198108043288937e+02 7.7846623753834399e+02 1.1329447719048541e-13 1.4642718823578835e+02 7.6882624343237569e+02 3.2101069530284667e+03 -999 5.96918374e-01 3.885594054e-02 -1.81206444e-01
 113 2 119662 7.0268727434404821e+02 7.1148397774227021e+02 1.0124321293830541e-13 1.4442348077149788e+02 6.5416402169941159e+02 3.4084059022141014e+03 -999 6.16847705e-01 3.820065647e-02 -1.78466550e-01
 114 2 119662 6.5944437551276553e+02 6.8210118780213134e+02 9.7113117603674611e-14 1.4566371604526131e+02 6.1107529690670106e+02 3.7669055439637032e+03 -999 6.29305184e-01 3.763109213e-02 -1.76689020e-01
 115 2 119662 6.3695824427215393e+02 6.5287820001436239e+02 9.4639078887798013e-14 1.4608578699528024e+02 5.8692480028776481e+02 2.9466900396798546e+03 -999 6.41524462e-01 3.697437997e-02 -1.74938884e-01
 116 2 119662 5.9774255182810543e+02 6.4133723871586960e+02 9.0269077649634729e-14 1.4917700052510529e+02 5.4794298238060014e+02 3.3437723657497386e+03 -999 6.51626867e-01 3.629175878e-02 -1.73593204e-01
 117 2 119662 5.7089731597631135e+02 6.3001385394123201e+02 1.0568888978858655e-13 1.5757299158973814e+02 5.2188576436287281e+02 3.3473534638210572e+03 -999 6.64412355e-01 3.537106071e-02 -1.71967433e-01
 118 2 119662 5.6352796285822160e+02 6.2030117415194252e+02 1.3098583873485080e-13 1.7216495293974202e+02 5.1766346498598216e+02 3.1542044217422517e+03 -999 6.79946970e-01 3.414623703e-02 -1.70012429e-01
 119 2 119662 5.5519174557396786e+02 6.2371989225923892e+02 1.4176180760156930e-13 1.8098922588518741e+02 5.1052435899759405e+02 2.9025527890170270e+03 -999 6.89566782e-01 3.328102654e-02 -1.68717183e-01
 120 2 119662 5.6309938000369914e+02 6.2821269355224263e+02 1.4842707822054449e-13 1.8769675493755426e+02 5.1779862204991912e+02 2.7408200489434962e+03 -999 6.98565617e-01 3.241302461e-02 -1.67426295e-01
 121 2 119662 5.1603586681221600e+02 6.2668888823840871e+02 1.2840504017834225e-13 1.9536159651859967e+02 4.7220316446350637e+02 2.7021269262347773e+03 -999 7.06864385e-01 3.152549010e-02 -1.66336956e-01
 122 2 119662 4.9264411061471571e+02 6.2662185252371455e+02 1.1761978654969321e-13 2.0605694697297500e+02 4.5083478319021538e+02 3.0199716828693599e+03 -999 7.17608921e-01 3.040674668e-02 -1.64971090e-01
 123 2 119662 4.8774999894098164e+02 6.2797020036697609e+02 1.1660722858262370e-13 2.1637205535226352e+02 4.4935085317463665e+02 3.0802661648100047e+03 -999 7.29561073e-01 2.915508706e-02 -1.63388140e-01
 124 2 119662 4.8865219438007648e+02 6.3665276984731861e+02 1.1625891632114711e-13 2.2056286856998784e+02 4.5023189716279114e+02 3.2392421421766799e+03 -999 7.37378235e-01 2.826104864e-02 -1.62148667e-01
 125 2 119662 4.8868592058015986e+02 6.3641193996251809e+02 1.1354158150033831e-13 2.2267232017883899e+02 4.5105277693775565e+02 2.7190466971930168e+03 -999 7.41486359e-01 2.772215396e-02 -1.61401634e-01
 126 2 119662 4.6733371566079103e+02 5.4326118409047342e+02 8.5352561517462951e-14 1.7828086652349444e+02 4.2677517609042161e+02 2.9981499565894233e+03 -999 7.45750407e-01 2.727408774e-02 -1.61022235e-01
 127 2 119662 4.8114343560072314e+02 4.7772819152140846e+02 6.2098924996999798e-14 1.4892003191800325e+02 4.4238873495703325e+02 3.2686801800981643e+03 -999 7.50440258e-01 2.676389534e-02 -1.60545167e-01
 128 2 119662 4.9365664854772859e+02 4.3314578058463792e+02 4.0833066924539640e-14 1.2751425347809723e+02 4.5824304854993733e+02 3.4419886276889238e+03 -999 7.56478894e-01 2.608214747e-02 -1.59848466e-01
 129 2 119662 4.8633049681291777e+02 4.2097143834526008e+02 3.4492919067419674e-14 1.2174122386880934e+02 4.5213203305150762e+02 3.1787272529208335e+03 -999 7.58927546e-01 2.578706983e-02 -1.59507274e-01
 130 2 119662 5.0674366476089989e+02 4.2068731263441191e+02 2.6996468531520080e-14 1.1582107133477373e+02 4.7000779610690745e+02 3.0995818014744036e+03 -999 7.62541081e-01 2.535269085e-02 -1.58994120e-01
 131 2 119662 4.7226256401258240e+02 3.9338426828254052e+02 2.5200333188418237e-14 1.0916441862071797e+02 4.3537731411284392e+02 3.1857623083266053e+03 -999 7.65693443e-01 2.500656100e-02 -1.58563478e-01
 132 2 119662 4.5405524334499199e+02 3.6579723880482430e+02 3.3085050199269233e-14 1.0393871561467097e+02 4.1719000506753844e+02 3.9107338004371231e+03 -999 7.70692514e-01 2.446881975e-02 -1.57953962e-01
 133 2 119662 4.3013059250576936e+02 3.5483451128648846e+02 3.7348177615137565e-14 1.0126835332865066e+02 3.9427636824128297e+02 3.6435675010245168e+03 -999 7.74516786e-01 2.404514682e-02 -1.57453155e-01
 134 2 119662 4.3878885198899445e+02 3.5708273309337829e+02 3.8519624874486936e-14 9.8821711492920400e+01 4.0248605316854798e+02 3.6556689727805060e+03 -999 7.78126383e-01 2.361769147e-02 -1.56884153e-01
 135 2 119662 4.3344621843410641e+02 3.5245168488065053e+02 3.8056493215053382e-14 9.7388558914877990e+01 3.9737795752888070e+02 4.2015365242610287e+03 -999 7.79829778e-01 2.340426954e-02 -1.56573578e-01
 136 2 119662 3.8913111501000429e+02 3.2725823537807418e+02 3.3712544840575703e-14 9.5268715404306533e+01 3.5050587484929497e+02 3.9982840440689283e+03 -999 7.83408460e-01 2.301540374e-02 -1.56049712e-01
 137 2 119662 3.7644935067338389e+02 3.1574609711855823e+02 4.0241609859124893e-14 9.3101471761716809e+01 3.3886377492615378e+02 3.7497791063957579e+03 -999 7.86767691e-01 2.266119706e-02 -1.55615042e-01
 138 2 119662 3.6750033674425958e+02 3.1120077989002408e+02 4.4894040539374370e-14 9.1249486899972297e+01 3.2951479408711964e+02 3.7325372174499485e+03 -999 7.90889755e-01 2.218330185e-02 -1.54948944e-01
 139 2 119662 3.6026227023735157e+02 3.0749890951732061e+02 4.4096773026634699e-14 9.0294869443456349e+01 3.2186756265196391e+02 3.5486317034704643e+03 -999 7.92419735e-01 2.198798746e-02 -1.54635665e-01
 140 2 119662 3.8757091955833124e+02 3.2316610577552905e+02 4.2784176234663634e-14 8.9388120559135160e+01 3.4851615647598464e+02 3.7086449340270651e+03 -999 7.94499553e-01 2.170936745e-02 -1.54179380e-01
 141 2 119662 3.5355044721191990e+02 2.9457909058564877e+02 4.8723638530907057e-14 8.6344891169849504e+01 3.1501160474760405e+02 3.4736169339820754e+03 -999 7.96477231e-01 2.146403832e-02 -1.53763832e-01