TITLE = "005.01 ALPHA 2.50 GRIDLEVEL 2"

VARIABLES = "ITERATION"  "GRID_LEVEL"  "GRID_SIZE"  "CONTINUITY"  "MOMENTUMX"  "MOMENTUMY"  "MOMENTUMZ"  "ENERGY"  "TURB1"  "TURB2"  "CL_TOT"  "CD_TOT"  "CM_TOT"

DATASETAUXDATA ParticipantID   = "005"
DATASETAUXDATA SubmissionDate  = "10-31-2024"
DATASETAUXDATA Name            = "Jeffrey A. Housman"
DATASETAUXDATA Email           = "jeffrey.a.housman@nasa.gov"
DATASETAUXDATA Institution     = "NASA Ames Research Center"
DATASETAUXDATA SolverName      = "LAVA Curvilinear"
DATASETAUXDATA BasicAlgorithm  = "RANS"
DATASETAUXDATA TurbulenceModel = "SA-neg"
DATASETAUXDATA GridId          = "Multiblock"
DATASETAUXDATA Discretization  = "Finite difference"
DATASETAUXDATA Order           = "2"
DATASETAUXDATA DistanceCalc    = "Exact"
DATASETAUXDATA Notes           = " "

ZONE T = "005.01 - Alpha 2.50 - Grid Level 2"
AUXDATA Tstatic         = "271.0"
AUXDATA Deltat          = "-999"
AUXDATA GridFileName    = "ONERA-OAT15A_230mmChord_780mmSpan_upZ_2024_06_25-Structured_23mm_Level-2.x"
AUXDATA Misc            = " "
 0 2 119662 1.7077830022550822e+05 3.5143827249137638e+05 3.0558354260881184e-14 1.4606879381976530e+05 1.7159509313807884e+05 4.8561471892582707e+05 -999 6.40593373e-03 4.527052814e-01 -2.98214860e-03
 1 2 119662 2.3445267284959194e+05 2.8209928798863018e+05 2.7485743982514672e-14 1.2336470956502290e+05 2.2640298096999171e+05 3.1335424952360074e+05 -999 3.71602009e-02 4.460985015e-01 -1.73249960e-02
 2 2 119662 2.8427215276851668e+05 2.5204922704223334e+05 2.5145535186402365e-14 1.3742000804053200e+05 2.7129614563342242e+05 2.0193720568680219e+05 -999 7.05185706e-02 4.504536000e-01 -3.29834339e-02
 3 2 119662 3.3567284824075649e+05 2.3211176624504296e+05 2.3338399673230077e-14 1.5887400592244879e+05 3.1989188779766706e+05 1.2930736314448790e+05 -999 9.77356818e-02 4.593318757e-01 -4.58906359e-02
 4 2 119662 3.8647342061715317e+05 2.1465334997095261e+05 2.1932050543890701e-14 1.8679812762531568e+05 3.7150293708885246e+05 8.1602747096534920e+04 -999 1.23133326e-01 4.712493964e-01 -5.68659448e-02
 5 2 119662 4.3464855295561138e+05 2.1562957461140578e+05 2.0823320369700782e-14 2.1688531585921120e+05 4.2417442335777212e+05 4.1977148084720713e+04 -999 1.43291201e-01 4.836098269e-01 -6.51789156e-02
 6 2 119662 3.9653621356173494e+05 2.5461005452968911e+05 1.9941957405643128e-14 2.2945922131339111e+05 3.8900606110724510e+05 3.4030404742216815e+04 -999 1.56975363e-01 4.892580715e-01 -7.14185340e-02
 7 2 119662 3.9310873628115241e+05 2.7423218235286791e+05 1.9143138393404246e-14 2.3388217898138438e+05 3.8231195189445704e+05 2.8220507619845295e+04 -999 1.67668822e-01 4.904501251e-01 -7.67996364e-02
 8 2 119662 4.2841222550529771e+05 2.7236084396747942e+05 1.8582584095456234e-14 2.3070284907171706e+05 4.3090691660865681e+05 2.4192325820391219e+04 -999 1.76109957e-01 4.859436897e-01 -8.08905560e-02
 9 2 119662 4.4838128566380858e+05 2.5289502466567248e+05 1.8177835729067836e-14 2.3160901938194747e+05 4.5458203727555927e+05 2.1383097657935803e+04 -999 1.84382843e-01 4.779301268e-01 -8.43662837e-02
 10 2 119662 4.6398889064787672e+05 2.4993462961588876e+05 1.7976433490341343e-14 2.2563268034742656e+05 4.8076093173553614e+05 1.9145531009644947e+04 -999 1.90270822e-01 4.717505989e-01 -8.66217035e-02
 11 2 119662 3.8332782598709024e+05 2.1530040383423481e+05 1.7774885627438520e-14 2.0766779728567656e+05 3.9122526789179456e+05 1.7167916746209572e+04 -999 1.97207145e-01 4.640913482e-01 -8.93182844e-02
 12 2 119662 3.6230114655243978e+05 2.1768964281016242e+05 1.7632618762850970e-14 1.9991731934991770e+05 3.6463354889130004e+05 1.5600671585736074e+04 -999 2.02612917e-01 4.579641597e-01 -9.14243115e-02
 13 2 119662 3.4389343124308757e+05 1.9178094542947257e+05 1.7587326799959319e-14 1.9006789470692360e+05 3.4290530813001143e+05 1.4289616180760866e+04 -999 2.06809558e-01 4.526576823e-01 -9.31405222e-02
 14 2 119662 3.7628225094918173e+05 2.0066367715169504e+05 1.7597149514276304e-14 1.8797657578535730e+05 3.8750168612522894e+05 1.3151268963274930e+04 -999 2.09631377e-01 4.483621081e-01 -9.43874210e-02
 15 2 119662 3.4100721040047397e+05 1.6905952129718399e+05 1.7567072204768744e-14 1.7725850796660333e+05 3.4728693721708242e+05 1.2191668388203771e+04 -999 2.11602291e-01 4.447450216e-01 -9.53417170e-02
 16 2 119662 3.1811871117773920e+05 1.7667883700349816e+05 1.7458990710591989e-14 1.7014041277434866e+05 3.2451491372362955e+05 1.1150213562567686e+04 -999 2.13313424e-01 4.409843694e-01 -9.62275659e-02
 17 2 119662 2.8279276365465357e+05 1.6904043986533841e+05 1.7331254554112531e-14 1.5621749465749986e+05 2.8829427323979762e+05 1.0268175997895896e+04 -999 2.15051073e-01 4.368136319e-01 -9.71385458e-02
 18 2 119662 2.9387041363726929e+05 1.6447856280548585e+05 1.7226720271978730e-14 1.5292479463780002e+05 2.9904858492767619e+05 9.4915903901441998e+03 -999 2.17084219e-01 4.315753089e-01 -9.81720993e-02
 19 2 119662 2.6583645179356821e+05 1.4579201489247507e+05 1.7110969361106035e-14 1.4162756171400225e+05 2.7067542061821633e+05 8.8325908071526192e+03 -999 2.18313036e-01 4.280715254e-01 -9.87477009e-02
 20 2 119662 3.1121029586707754e+05 1.7182795825860457e+05 1.6990727165950508e-14 1.4755756864237634e+05 3.2659525377737376e+05 8.2667885439894362e+03 -999 2.19670341e-01 4.238071161e-01 -9.93466968e-02
 21 2 119662 2.5789542139436712e+05 1.5852134332683773e+05 1.6852102188404826e-14 1.3181930082478092e+05 2.7328454739219480e+05 7.6388067509467055e+03 -999 2.20577167e-01 4.201310606e-01 -9.97194665e-02
 22 2 119662 2.1685941962325294e+05 1.2976528691836887e+05 1.6688785413193816e-14 1.1866101004061449e+05 2.2194242722281738e+05 7.0729290441602425e+03 -999 2.21544405e-01 4.156657467e-01 -1.00109269e-01
 23 2 119662 1.9941397584347110e+05 1.2447126131997067e+05 1.6536680172988209e-14 1.1047504575246079e+05 2.0117597329552734e+05 6.5758625152702916e+03 -999 2.22315478e-01 4.115736601e-01 -1.00416378e-01
 24 2 119662 2.2686357378574481e+05 1.2720219931433763e+05 1.6414407570956437e-14 1.0986687967066851e+05 2.3611884232524873e+05 6.1407234077223147e+03 -999 2.23001560e-01 4.075422003e-01 -1.00688010e-01
 25 2 119662 2.0363739068653464e+05 1.0593492502954813e+05 1.6340469023066685e-14 1.0221190067719028e+05 2.1010368184651920e+05 5.7680258571379254e+03 -999 2.23447888e-01 4.046604331e-01 -1.00864750e-01
 26 2 119662 1.8245968056291784e+05 1.0727211363221554e+05 1.6193256060032043e-14 9.5601617494391467e+04 1.8938301307244282e+05 5.3180160525375732e+03 -999 2.23851495e-01 4.014928041e-01 -1.01021890e-01
 27 2 119662 1.5614808085765125e+05 1.0088192824454217e+05 1.6003194470864351e-14 8.6016538272546793e+04 1.6146448753130069e+05 4.9195860160445509e+03 -999 2.24298320e-01 3.977515104e-01 -1.01198860e-01
 28 2 119662 1.4644913936119000e+05 9.4361078602638881e+04 1.5804911597656085e-14 7.9115447221964510e+04 1.4914655919985729e+05 4.5714626111436401e+03 -999 2.24728143e-01 3.938917704e-01 -1.01373828e-01
 29 2 119662 1.5755922066930219e+05 9.1616169019161302e+04 1.5611473938039156e-14 7.6768732497860881e+04 1.6172380972176211e+05 4.2654495763148116e+03 -999 2.25109150e-01 3.902337629e-01 -1.01533090e-01
 30 2 119662 1.4839806376096257e+05 8.4452131762543751e+04 1.5478037842917962e-14 7.2351319929054473e+04 1.5487416689951345e+05 4.0040465745272932e+03 -999 2.25348953e-01 3.877826806e-01 -1.01634651e-01
 31 2 119662 1.2741945212753296e+05 7.9139637806784944e+04 1.5283526858322937e-14 6.6244811022313443e+04 1.3367862980666655e+05 3.7034395911379070e+03 -999 2.25583146e-01 3.848913707e-01 -1.01731701e-01
 32 2 119662 1.0623883918616312e+05 7.4805533360887828e+04 1.5040668292783158e-14 5.9415871555595753e+04 1.1016962838512029e+05 3.4290664552363965e+03 -999 2.25854043e-01 3.814382582e-01 -1.01844299e-01
 33 2 119662 9.7997637939157066e+04 7.0523123478571069e+04 1.4795131747753370e-14 5.4256039911187727e+04 9.9550052393794962e+04 3.1872616770336795e+03 -999 2.26113218e-01 3.780058482e-01 -1.01952673e-01
 34 2 119662 1.0665295536452095e+05 7.0395085413962457e+04 1.4574796720664861e-14 5.2306062405861332e+04 1.1039143897692581e+05 2.9759891734875328e+03 -999 2.26336471e-01 3.749342278e-01 -1.02046256e-01
 35 2 119662 1.0447400594143556e+05 6.5459349441969302e+04 1.4408116871903504e-14 5.0329747537089475e+04 1.0767933307495186e+05 2.7941499163608369e+03 -999 2.26505148e-01 3.725339019e-01 -1.02116585e-01
 36 2 119662 8.9094758128867514e+04 6.4009042867588178e+04 1.4209328945810676e-14 4.5923428475879693e+04 9.3922784855940015e+04 2.5825952756859401e+03 -999 2.26649042e-01 3.700435105e-01 -1.02173773e-01
 37 2 119662 7.1741832775804389e+04 5.8121903728058831e+04 1.3974829282288292e-14 4.0687084845606441e+04 7.5461296212655725e+04 2.3925237563205210e+03 -999 2.26816256e-01 3.671517710e-01 -1.02240197e-01
 38 2 119662 6.2610617824734683e+04 5.3066109024297759e+04 1.3702355296546939e-14 3.6351747137442479e+04 6.3567935422689952e+04 2.2205974521882754e+03 -999 2.26999585e-01 3.639916110e-01 -1.02312980e-01
 39 2 119662 6.5866663278048640e+04 5.1684934666532252e+04 1.3432532980015952e-14 3.4253327233654083e+04 6.7605416310232293e+04 2.0680464480606233e+03 -999 2.27174247e-01 3.609835595e-01 -1.02382332e-01
 40 2 119662 6.5333321895714304e+04 4.9696126016664064e+04 1.3240818827129947e-14 3.2856814002612489e+04 6.7748703478251598e+04 1.9376220356711765e+03 -999 2.27302257e-01 3.587634497e-01 -1.02433212e-01
 41 2 119662 5.5616826163177677e+04 4.7362175537707786e+04 1.3028076150722890e-14 3.0202773666546149e+04 5.8808948324559460e+04 1.7733584120567969e+03 -999 2.27412734e-01 3.564373708e-01 -1.02475797e-01
 42 2 119662 4.4277255782533102e+04 4.4597022037248207e+04 1.2768524754463183e-14 2.7150548147769205e+04 4.6720518378239998e+04 1.6268239195513531e+03 -999 2.27545887e-01 3.536647045e-01 -1.02527616e-01
 43 2 119662 3.7714136155473883e+04 4.1617977972908804e+04 1.2474406926794828e-14 2.4406595803053449e+04 3.8384079029616143e+04 1.4988273018377108e+03 -999 2.27697128e-01 3.505501105e-01 -1.02586864e-01
 44 2 119662 3.7843323143606278e+04 4.0119747657637708e+04 1.2200753452449843e-14 2.2887416383841013e+04 3.8649171598852205e+04 1.3900614630340335e+03 -999 2.27833656e-01 3.477601330e-01 -1.02640652e-01
 45 2 119662 3.8851260158062789e+04 3.9801931057534050e+04 1.1976789118380078e-14 2.2021994307950376e+04 4.0526890160119641e+04 1.2892676127025816e+03 -999 2.27947578e-01 3.454339525e-01 -1.02685918e-01
 46 2 119662 3.3281789171916142e+04 3.7531509690290055e+04 1.1757702704371549e-14 2.0619864452639671e+04 3.5103491287865683e+04 1.1667300885968250e+03 -999 2.28040046e-01 3.431368758e-01 -1.02721824e-01
 47 2 119662 2.7080127506617624e+04 3.5477296519086085e+04 1.1487382917646065e-14 1.9046679150364394e+04 2.8339481705084861e+04 1.0596457443571996e+03 -999 2.28153575e-01 3.403478469e-01 -1.02766336e-01
 48 2 119662 2.2987366356018523e+04 3.3624448922289761e+04 1.1186105318046968e-14 1.7553665186103164e+04 2.3236641681235200e+04 9.6722893739884069e+02 -999 2.28284657e-01 3.371605205e-01 -1.02818003e-01
 49 2 119662 2.1942808494307665e+04 3.2299144546929834e+04 1.0909633414930700e-14 1.6510856787673787e+04 2.1942797429929491e+04 8.9016313387955790e+02 -999 2.28408469e-01 3.341634528e-01 -1.02867039e-01
 50 2 119662 2.1648771707687367e+04 3.1395128951238450e+04 1.0648588681306222e-14 1.5769443667683237e+04 2.1810606770284798e+04 8.2424725085233763e+02 -999 2.28517514e-01 3.315087287e-01 -1.02910701e-01
 51 2 119662 1.9358546193279577e+04 3.0121775719021029e+04 1.0404364075108720e-14 1.4943004544763284e+04 1.9545412080964667e+04 7.3744218362353161e+02 -999 2.28597881e-01 3.288839969e-01 -1.02939515e-01
 52 2 119662 1.6890743787375235e+04 2.8737669166973599e+04 1.0123233745525480e-14 1.3977403430573790e+04 1.6879456759738296e+04 6.6619611101294288e+02 -999 2.28692921e-01 3.256763400e-01 -1.02972119e-01
 53 2 119662 1.5078061747629083e+04 2.7332604880105144e+04 9.7853427237042582e-15 1.2954758092945618e+04 1.4813313794970742e+04 6.0759213961364583e+02 -999 2.28798156e-01 3.219487434e-01 -1.03005180e-01
 54 2 119662 1.4146190332151469e+04 2.6142811058104628e+04 9.4341326060946428e-15 1.2063802201243210e+04 1.3878397219884868e+04 5.5919706748911221e+02 -999 2.28894911e-01 3.182652741e-01 -1.03031324e-01
 55 2 119662 1.3583934123713225e+04 2.5187983158031548e+04 9.1499605127245993e-15 1.1336675509109456e+04 1.3474990707915702e+04 5.1898951283563497e+02 -999 2.28975020e-01 3.149190266e-01 -1.03048788e-01
 56 2 119662 1.2502757793678618e+04 2.4113460355603424e+04 8.8568404849154575e-15 1.0591717257019427e+04 1.2530701424536652e+04 4.7443961452111654e+02 -999 2.29015639e-01 3.113403336e-01 -1.03031047e-01
 57 2 119662 1.1399527811389164e+04 2.2896274993969451e+04 8.5197512400895596e-15 9.7372112634278819e+03 1.1593961950512119e+04 4.4138965778998698e+02 -999 2.29056257e-01 3.068367708e-01 -1.02993700e-01
 58 2 119662 1.0570357837848152e+04 2.1649334427567501e+04 8.1598961454992439e-15 8.8854669172963713e+03 1.1002510831932796e+04 4.1857433806992526e+02 -999 2.29091898e-01 3.015818238e-01 -1.02928622e-01
 59 2 119662 1.0120369083004689e+04 2.0598228764770342e+04 7.8153959079927441e-15 8.2301852441278534e+03 1.0828887307875930e+04 4.0162305813575131e+02 -999 2.29119081e-01 2.964405183e-01 -1.02843117e-01
 60 2 119662 9.9139254218544047e+03 1.9743495502959686e+04 7.5367922033353674e-15 7.7740141984909478e+03 1.0878662246856085e+04 3.8746996856660445e+02 -999 2.29144144e-01 2.915976022e-01 -1.02746885e-01
 61 2 119662 9.5178506209396292e+03 1.8775961261858214e+04 7.2337761635268090e-15 7.3198662745475576e+03 1.0751271948384827e+04 3.7339094225878415e+02 -999 2.29164906e-01 2.857356016e-01 -1.02577086e-01
 62 2 119662 9.3402662875133756e+03 1.7712122206220956e+04 6.9169947065368702e-15 7.0058655320752914e+03 1.0807204552560424e+04 3.7212015709532398e+02 -999 2.29244385e-01 2.780266799e-01 -1.02339198e-01
 63 2 119662 9.4719678488360241e+03 1.6740108719881217e+04 6.6510596759304162e-15 6.9585974684083712e+03 1.1077039481024221e+04 3.7896263448152212e+02 -999 2.29438093e-01 2.692075242e-01 -1.02067043e-01
 64 2 119662 9.7504671218064814e+03 1.5979753008305726e+04 6.4439347306118079e-15 7.0929844673065081e+03 1.1409144565382836e+04 3.8683578174964970e+02 -999 2.29774014e-01 2.605440449e-01 -1.01833431e-01
 65 2 119662 1.0003455545158642e+04 1.5369189019600881e+04 6.2857802692831693e-15 7.2766344725372064e+03 1.1668064677497192e+04 3.9436419940157674e+02 -999 2.30196447e-01 2.522867289e-01 -1.01696607e-01
 66 2 119662 1.0059040130380807e+04 1.4510276081630818e+04 4.4034017546340431e-14 7.0863219967062923e+03 1.1681801438676584e+04 4.0927074540864567e+02 -999 2.31182073e-01 2.410476008e-01 -1.01703615e-01
 67 2 119662 1.0065544967796466e+04 1.3669835243615946e+04 9.5525165587789655e-14 6.8682578671885485e+03 1.1552732629752700e+04 4.5755101686101301e+02 -999 2.33055059e-01 2.259965340e-01 -1.02039399e-01
 68 2 119662 9.9221059359950195e+03 1.3177992289063175e+04 1.4063615223594343e-13 6.6422267617658499e+03 1.1223935545194157e+04 5.4853219271814157e+02 -999 2.35687780e-01 2.106891216e-01 -1.02935342e-01
 69 2 119662 9.6570922184247174e+03 1.2946198819454952e+04 1.7698056513989337e-13 6.4886540139599228e+03 1.0760661657316448e+04 7.6596608325360114e+02 -999 2.38686460e-01 1.965839321e-01 -1.04412843e-01
 70 2 119662 9.3175097246924233e+03 1.2898885046080073e+04 2.0770073835940762e-13 6.4531540809053577e+03 1.0210183043632667e+04 1.2403370847439639e+03 -999 2.41783252e-01 1.832724338e-01 -1.06469788e-01
 71 2 119662 8.4503261285427834e+03 1.1755882857634213e+04 1.4519744135904713e-13 6.4051003863354981e+03 9.0114172556000867e+03 2.2020270369406676e+03 -999 2.45894609e-01 1.634846353e-01 -1.10698060e-01
 72 2 119662 7.5278011737186725e+03 1.1027288300608883e+04 9.9779855769024511e-14 6.3627499350030057e+03 7.8076694392660893e+03 3.7152606419474846e+03 -999 2.47382714e-01 1.457755673e-01 -1.15402837e-01
 73 2 119662 6.8648264524680926e+03 1.0715855206417378e+04 7.0716891967676473e-14 6.3468452473467114e+03 6.9410128225563221e+03 6.3415850498828941e+03 -999 2.44779813e-01 1.316802233e-01 -1.19161904e-01
 74 2 119662 6.5536733099884987e+03 1.0788255253303629e+04 5.6123078513814831e-14 5.8521050870177414e+03 6.4475156689621290e+03 9.7053239077097278e+03 -999 2.39643042e-01 1.229578965e-01 -1.20703703e-01
 75 2 119662 6.4479047123513665e+03 1.0925913553238752e+04 5.1272570138487823e-14 5.3582953999642468e+03 6.2156622431619917e+03 1.0614315344844426e+04 -999 2.36569968e-01 1.196034372e-01 -1.20847698e-01
 76 2 119662 5.5176425739023216e+03 1.0237310398644942e+04 4.2327973843577554e-14 4.6128653144446234e+03 5.4615179350537855e+03 1.0441531839950632e+04 -999 2.29657333e-01 1.138377418e-01 -1.20322631e-01
 77 2 119662 4.7899668177128206e+03 1.0253827837159912e+04 3.1731036773683206e-14 3.8628323868912912e+03 4.7560213239643026e+03 9.3274592226389668e+03 -999 2.19831118e-01 1.066202791e-01 -1.18680790e-01
 78 2 119662 4.3773358560280740e+03 9.8390324676148794e+03 2.6588976932435643e-14 3.3684339693183624e+03 4.3729740648695652e+03 7.1047479747838979e+03 -999 2.14656045e-01 1.025487480e-01 -1.17095865e-01
 79 2 119662 4.1755512590018288e+03 9.1205446530234440e+03 2.2992841593775024e-14 3.1821094245064137e+03 4.1492082028274372e+03 5.5636371798970895e+03 -999 2.11845537e-01 9.937050914e-02 -1.15829487e-01
 80 2 119662 4.0626877691592076e+03 8.6558420286016917e+03 2.1441331020101143e-14 3.2239283100345974e+03 4.0180504961808010e+03 5.0302707391617250e+03 -999 2.11319809e-01 9.789199948e-02 -1.15346589e-01
 81 2 119662 3.6030145198460405e+03 7.3804570388111579e+03 1.7697238577485747e-14 3.2386617759278301e+03 3.5419655706195636e+03 5.1478025345748765e+03 -999 2.12765717e-01 9.399051009e-02 -1.14715249e-01
 82 2 119662 3.5165066898869782e+03 6.2394032016847605e+03 1.3354147947575006e-14 3.4004248615017996e+03 3.3878655537000905e+03 5.3898916060529300e+03 -999 2.21101024e-01 8.868136122e-02 -1.15727992e-01
 83 2 119662 3.9854494615957065e+03 6.3153573978224031e+03 1.0797923310377918e-14 3.5114490862031521e+03 3.8359083106311373e+03 8.4957224915097067e+03 -999 2.35311245e-01 8.451943649e-02 -1.19361792e-01
 84 2 119662 4.1441261238772213e+03 6.8497367815344996e+03 9.7344472871624081e-15 3.4864240568848909e+03 3.9841806351360174e+03 1.3395321957174649e+04 -999 2.44759593e-01 8.244304017e-02 -1.22449347e-01
 85 2 119662 4.4852444750091126e+03 8.2584893825127874e+03 8.7087986825749872e-15 3.4631752671134732e+03 4.2806733852859561e+03 3.0704634643320333e+04 -999 2.56671662e-01 8.012246347e-02 -1.26757082e-01
 86 2 119662 3.6829807031841447e+03 5.9428155095578504e+03 7.3536019326943638e-15 2.9233194278678452e+03 3.7668829138552624e+03 5.9891112069607596e+04 -999 2.77208146e-01 7.708163427e-02 -1.35309274e-01
 87 2 119662 3.3043040968319333e+03 6.5069208933867703e+03 6.3815196549206032e-15 2.6537730298211513e+03 3.9924999919308784e+03 9.3235115145196120e+04 -999 2.97653101e-01 7.425540327e-02 -1.44869858e-01
 88 2 119662 2.9812068899877131e+03 8.7431471449243836e+03 5.9578870803780521e-15 2.5235453397205406e+03 4.1687524897923258e+03 1.1776716025804079e+05 -999 3.03733078e-01 7.339488897e-02 -1.47890948e-01
 89 2 119662 2.8456600804855057e+03 8.9282155205878644e+03 5.7919163552871512e-15 2.4923757550662776e+03 4.4997282019956720e+03 1.3631890658241312e+05 -999 3.06789771e-01 7.295990086e-02 -1.49403244e-01
 90 2 119662 2.7509750013325197e+03 9.1801670577872083e+03 5.7760077862441261e-15 2.4472927397817853e+03 4.5612497014995060e+03 6.5553025295511645e+04 -999 3.09199599e-01 7.261730730e-02 -1.50587748e-01
 91 2 119662 2.3368051647650386e+03 3.0237602257571330e+03 1.2144422112273876e-13 2.2083087327623825e+03 2.2360968118474452e+03 5.5691287871949447e+04 -999 3.31243479e-01 6.954115362e-02 -1.61186529e-01
 92 2 119662 2.1548604663205219e+03 2.5592570199837123e+03 1.7419331252104149e-13 2.1436354187941952e+03 2.0011050991794887e+03 2.8014002668522426e+04 -999 3.54390847e-01 6.659324165e-02 -1.71397323e-01
 93 2 119662 2.0372624953514428e+03 2.4727195423860767e+03 1.7072595386032866e-13 2.0301387159312962e+03 1.9599337979287616e+03 2.8566700025806556e+04 -999 3.78758474e-01 6.358841889e-02 -1.80572701e-01
 94 2 119662 2.0816287046299990e+03 2.6160853949150642e+03 1.3535305732376894e-13 1.8720340249815042e+03 2.8362130360968235e+03 2.6870496412176271e+04 -999 4.04175419e-01 6.063303337e-02 -1.88242704e-01
 95 2 119662 2.0852552815565973e+03 2.5420027450215912e+03 1.0538788713261699e-13 1.5280071106437167e+03 3.7356654910734110e+03 2.4925361684660511e+04 -999 4.21425464e-01 5.891007813e-02 -1.92233843e-01
 96 2 119662 1.6328925993928463e+03 1.9573486701820225e+03 1.0461425777970200e-13 9.4527634985551595e+02 1.7953330755571528e+03 1.5693012102572802e+04 -999 4.60296432e-01 5.695345086e-02 -1.97981609e-01
 97 2 119662 1.4674079824438543e+03 1.5333435405738951e+03 1.0293046835933810e-13 5.8726234196411178e+02 1.5203371501124286e+03 1.1645705597667964e+04 -999 5.04557878e-01 5.540276759e-02 -2.02455598e-01
 98 2 119662 1.4781226198375823e+03 1.3634910576663026e+03 9.0715637073147488e-14 4.3483669818066483e+02 1.5222604140983296e+03 8.9656547127985159e+03 -999 5.42954348e-01 5.475863223e-02 -2.04496595e-01
 99 2 119662 1.6308713052914982e+03 1.3152519112615826e+03 7.8706007622232308e-14 3.6613172240494657e+02 1.6865928177260078e+03 7.1432724489346847e+03 -999 5.72943965e-01 5.473068070e-02 -2.04941056e-01
 100 2 119662 1.8563079177596205e+03 1.3271635610331887e+03 7.0127332995784410e-14 3.3459877722061088e+02 1.9372014239671753e+03 5.7460085221026166e+03 -999 5.94373270e-01 5.495174562e-02 -2.04607997e-01
 101 2 119662 1.1848744431668295e+03 1.1021901457446620e+03 2.1225394112754040e-13 2.5783626856598869e+02 1.1804950056543021e+03 4.3284893783629268e+03 -999 6.46574618e-01 5.604438731e-02 -2.00994482e-01
 102 2 119662 8.7783934984436564e+02 9.9521091888059959e+02 5.0712913673929675e-13 2.0961764691397343e+02 8.3520150999149564e+02 3.7961856491804510e+03 -999 6.91950606e-01 5.679857627e-02 -1.96873556e-01
 103 2 119662 7.1490442118490159e+02 8.3812673066255013e+02 5.7880765568964985e-13 1.7573737548822501e+02 6.6065326628672915e+02 4.3256215808262832e+03 -999 7.37876396e-01 5.716806386e-02 -1.91986036e-01
 104 2 119662 6.7608879574238631e+02 8.0996645305729817e+02 5.9619549809257639e-13 1.7132890975026635e+02 6.2016258192106864e+02 4.3349064515914524e+03 -999 7.55415949e-01 5.692090609e-02 -1.89823495e-01
 105 2 119662 6.4379786299037585e+02 7.8287216840341853e+02 4.7575171903132547e-13 1.6672186633099867e+02 5.8619459271738242e+02 5.3953552715995829e+03 -999 7.71129150e-01 5.651447881e-02 -1.87796915e-01
 106 2 119662 6.2609157497755791e+02 9.6846254692810953e+02 9.9442045546885350e-13 1.8149272408784819e+02 5.7188300280526710e+02 8.1444902208223084e+03 -999 7.92356565e-01 5.518436371e-02 -1.86043927e-01
 107 2 119662 6.1416662447924637e+02 1.0232887885299622e+03 1.7858811594121965e-12 2.1187889625357982e+02 5.6223463559502204e+02 9.2695723277615525e+03 -999 8.14058566e-01 5.367717664e-02 -1.84051836e-01
 108 2 119662 6.0492095526356661e+02 1.0296863745366447e+03 2.4936268827263281e-12 2.4844099648419649e+02 5.5692914190451711e+02 6.6003046386928418e+03 -999 8.35412587e-01 5.205509443e-02 -1.81883738e-01
 109 2 119662 6.1297642698342099e+02 1.0132824540768208e+03 2.9241556975622207e-12 2.8021186971975095e+02 5.6932509445879464e+02 6.0960796328400347e+03 -999 8.56766070e-01 5.026015645e-02 -1.79407181e-01
 110 2 119662 6.3409797180952205e+02 9.6985370783735721e+02 2.7188722780970331e-12 2.7270577827412956e+02 5.8564877957814122e+02 5.5367480818189033e+03 -999 8.69952864e-01 4.896114351e-02 -1.77413318e-01
 111 2 119662 5.9036468585046566e+02 9.5851779418584374e+02 2.9294335633078287e-12 2.8148597785713127e+02 5.4273558790852667e+02 4.6903691093831349e+03 -999 8.78213878e-01 4.820017566e-02 -1.76360255e-01
 112 2 119662 5.7291879391765019e+02 9.4513524038240985e+02 3.5696042427888629e-12 3.1290738093862808e+02 5.2311072979321148e+02 5.0515906458807567e+03 -999 8.90044617e-01 4.726817488e-02 -1.75159408e-01
 113 2 119662 5.8480913805694138e+02 9.4414513680284335e+02 3.7733847866088500e-12 3.5152923073843107e+02 5.3216004357101781e+02 5.7759081495541104e+03 -999 9.03604395e-01 4.627806306e-02 -1.73891112e-01
 114 2 119662 6.0235183465400712e+02 9.2923031037463045e+02 4.0106201667599727e-12 3.6330897761743933e+02 5.4690500208717867e+02 5.0199702050700662e+03 -999 9.14255758e-01 4.546267126e-02 -1.72796780e-01
 115 2 119662 6.2368955446399309e+02 9.1987508489566915e+02 3.8608621728915443e-12 3.6528259015924442e+02 5.6674145253343409e+02 5.0998964677941440e+03 -999 9.21582551e-01 4.475900317e-02 -1.71638409e-01
 116 2 119662 5.9327094040793202e+02 8.3231497621882045e+02 2.9847547745055347e-12 3.1196680682053301e+02 5.3382584620951923e+02 5.1147124055328422e+03 -999 9.24434224e-01 4.444322655e-02 -1.71114998e-01
 117 2 119662 5.8593219074030412e+02 7.3953943060228846e+02 2.2210973688665999e-12 2.5576013885575699e+02 5.2497773443994288e+02 5.4675130843807983e+03 -999 9.28302748e-01 4.402648363e-02 -1.70426099e-01
 118 2 119662 6.0120560852400968e+02 6.5762235975540216e+02 1.9478519349517158e-12 2.0806387885052726e+02 5.4309366041075282e+02 5.8281100069361573e+03 -999 9.33160178e-01 4.346133334e-02 -1.69488265e-01
 119 2 119662 6.0596550868690463e+02 6.2498923284189425e+02 1.9660195905750277e-12 1.8647821708182508e+02 5.5103363702101228e+02 5.9231105612287911e+03 -999 9.35970614e-01 4.305754599e-02 -1.68796722e-01
 120 2 119662 6.2239851841949269e+02 6.0700372432753863e+02 2.1172329984533802e-12 1.7076046548731986e+02 5.7096815217997369e+02 5.5720707516802968e+03 -999 9.39135442e-01 4.261521418e-02 -1.68055117e-01
 121 2 119662 5.9740368679092091e+02 5.8725708259006467e+02 1.7436178301752141e-12 1.6357404246660263e+02 5.4484293680334247e+02 5.2810277892970189e+03 -999 9.41153339e-01 4.235930000e-02 -1.67630195e-01
 122 2 119662 5.8045010224328234e+02 5.6648890206128931e+02 1.4444685107784099e-12 1.5760126164728698e+02 5.2727782562693426e+02 5.7654478973700243e+03 -999 9.43616292e-01 4.203527672e-02 -1.67105907e-01
 123 2 119662 5.7514155224862770e+02 5.4094586090068731e+02 1.2578089669429392e-12 1.5136545395028244e+02 5.2346213494576807e+02 6.3376563405189199e+03 -999 9.47065085e-01 4.159255055e-02 -1.66421267e-01
 124 2 119662 5.7347797725317287e+02 5.2799199586792304e+02 1.2347450796346523e-12 1.4761380150388663e+02 5.2227130248618971e+02 5.5541178309806492e+03 -999 9.49482601e-01 4.130532605e-02 -1.65981562e-01
 125 2 119662 5.8080227013096396e+02 5.2518846445749807e+02 1.2442109232695534e-12 1.4503618177181289e+02 5.3083526605320003e+02 5.8504128593725809e+03 -999 9.52076409e-01 4.102369705e-02 -1.65578560e-01
 126 2 119662 5.6148110738995285e+02 5.1626746720600613e+02 1.0954516096636614e-12 1.4335803545028864e+02 5.0953053953674606e+02 5.9792976559225999e+03 -999 9.54173951e-01 4.085056206e-02 -1.65364480e-01
 127 2 119662 5.4752752973362306e+02 5.0424800866776491e+02 1.0740808154805517e-12 1.4317544258783687e+02 4.9403774122969963e+02 5.7313680564653223e+03 -999 9.56725359e-01 4.063893817e-02 -1.65122604e-01
 128 2 119662 5.4408073506263543e+02 4.9010627576188148e+02 1.2025504379942439e-12 1.4366808256568484e+02 4.9132746247696900e+02 5.9413506720968298e+03 -999 9.60036320e-01 4.037413968e-02 -1.64835490e-01
 129 2 119662 5.5050561986875698e+02 4.7983473970542877e+02 1.2941616698953945e-12 1.4041373135537884e+02 4.9822190610148436e+02 5.1477241587105518e+03 -999 9.62593379e-01 4.015642208e-02 -1.64552124e-01
 130 2 119662 5.5500831976764732e+02 4.7564498578576251e+02 1.3650968414451326e-12 1.3750269317032641e+02 5.0411237467013518e+02 5.9604479110218290e+03 -999 9.64838547e-01 3.997390036e-02 -1.64339449e-01
 131 2 119662 5.2902227728381945e+02 4.6803656889963588e+02 1.1961003700886225e-12 1.3728935951067265e+02 4.7648209941777873e+02 5.5859996208963421e+03 -999 9.66717034e-01 3.986582076e-02 -1.64279974e-01
 132 2 119662 5.1411383395905273e+02 4.5910143458021099e+02 1.1378822894771324e-12 1.3733540050070653e+02 4.6050782323736257e+02 5.5315707035087271e+03 -999 9.69017956e-01 3.973624035e-02 -1.64222332e-01
 133 2 119662 5.1115386601788504e+02 4.4875247276702396e+02 1.1925860681042747e-12 1.3705043463588791e+02 4.5839336966515890e+02 5.6023175168596408e+03 -999 9.71891945e-01 3.956303111e-02 -1.64126512e-01
 134 2 119662 5.1392484341749002e+02 4.4243599184534884e+02 1.2539800118604412e-12 1.3603279648105064e+02 4.6166369501033881e+02 5.5494625502263843e+03 -999 9.74161333e-01 3.944822949e-02 -1.64103132e-01
 135 2 119662 5.1554503380906817e+02 4.3932852775513294e+02 1.3150049100930377e-12 1.3446760716925783e+02 4.6459189488649270e+02 5.2217185390131935e+03 -999 9.76394760e-01 3.936205710e-02 -1.64147547e-01
 136 2 119662 4.9054575835966125e+02 4.3110772371396951e+02 1.1132135591531498e-12 1.3397867619005351e+02 4.3781758458172317e+02 5.4289433062758644e+03 -999 9.78792714e-01 3.933387967e-02 -1.64334725e-01
 137 2 119662 4.7867657099699403e+02 4.2207540568300055e+02 1.0750339851279225e-12 1.3402835527460570e+02 4.2520015083583604e+02 5.6697220018479611e+03 -999 9.81636964e-01 3.929439912e-02 -1.64556034e-01
 138 2 119662 4.7771178441298133e+02 4.1093326880166313e+02 1.2041759756766468e-12 1.3361142521595818e+02 4.2509077255002694e+02 5.7764980327771727e+03 -999 9.85200908e-01 3.926225849e-02 -1.64889909e-01
 139 2 119662 4.7531425094518198e+02 4.0227124356486974e+02 1.2996059915416667e-12 1.3166863690771990e+02 4.2394568862736094e+02 4.7406371767350947e+03 -999 9.87007574e-01 3.917946748e-02 -1.64911238e-01
 140 2 119662 4.7275917070952056e+02 3.9925597572584769e+02 1.3858116716865577e-12 1.3015895163232739e+02 4.2267651346872742e+02 5.3182867427841738e+03 -999 9.88628530e-01 3.906758233e-02 -1.64844525e-01
 141 2 119662 4.4325251516470956e+02 3.8956651161572228e+02 1.1446827253881417e-12 1.2890706057901363e+02 3.9323363374791830e+02 4.8090585279717743e+03 -999 9.90431165e-01 3.904534830e-02 -1.64975027e-01