TITLE = "005.01 ALPHA 3.50 GRIDLEVEL 4"

VARIABLES = "ITERATION"  "GRID_LEVEL"  "GRID_SIZE"  "CONTINUITY"  "MOMENTUMX"  "MOMENTUMY"  "MOMENTUMZ"  "ENERGY"  "TURB1"  "TURB2"  "CL_TOT"  "CD_TOT"  "CM_TOT"

DATASETAUXDATA ParticipantID   = "005"
DATASETAUXDATA SubmissionDate  = "10-31-2024"
DATASETAUXDATA Name            = "Jeffrey A. Housman"
DATASETAUXDATA Email           = "jeffrey.a.housman@nasa.gov"
DATASETAUXDATA Institution     = "NASA Ames Research Center"
DATASETAUXDATA SolverName      = "LAVA Curvilinear"
DATASETAUXDATA BasicAlgorithm  = "RANS"
DATASETAUXDATA TurbulenceModel = "SA-neg"
DATASETAUXDATA GridId          = "Multiblock"
DATASETAUXDATA Discretization  = "Finite difference"
DATASETAUXDATA Order           = "2"
DATASETAUXDATA DistanceCalc    = "Exact"
DATASETAUXDATA Notes           = " "

ZONE T = "005.01 - Alpha 3.50 - Grid Level 4"
AUXDATA Tstatic         = "271.0"
AUXDATA Deltat          = "-999"
AUXDATA GridFileName    = "ONERA-OAT15A_230mmChord_780mmSpan_upZ_2024_06_25-Structured_23mm_Level-4.x"
AUXDATA Misc            = " "
 0 4 430284 3.8108442655562860e+05 1.0679953080882623e+06 6.4510497630925045e-14 3.6564055771608296e+05 4.0106589849331568e+05 1.7155271828171567e+06 -999 1.46628057e-02 7.532324713e-01 -9.10067334e-03
 1 4 430284 5.5037828001795162e+05 8.1681058683165500e+05 5.5805439458900632e-14 2.8413059414951352e+05 5.3729312361544580e+05 1.1146086505910573e+06 -999 5.31838082e-02 7.041058368e-01 -2.46773809e-02
 2 4 430284 6.6834322460750176e+05 7.0790929283181555e+05 4.9269255535055918e-14 3.1263964384590735e+05 6.4241828407467972e+05 7.2731631435421482e+05 -999 9.86544975e-02 6.789076933e-01 -4.26467215e-02
 3 4 430284 7.7991489340635587e+05 6.3839457615851355e+05 4.4181476374583930e-14 3.6796990647943271e+05 7.4787833462375624e+05 4.7498520596265409e+05 -999 1.39409712e-01 6.646561880e-01 -5.93079586e-02
 4 4 430284 8.8169142454444082e+05 5.8623957553964178e+05 4.0161887411062049e-14 4.3547889441769046e+05 8.5284218132431793e+05 3.0487088037447759e+05 -999 1.75404185e-01 6.571167407e-01 -7.25221426e-02
 5 4 430284 9.8380773804357159e+05 5.8825611619482469e+05 3.6966674653775712e-14 5.0806715517671418e+05 9.7050520833534421e+05 1.9550489645789983e+05 -999 2.03359925e-01 6.521241312e-01 -8.24272045e-02
 6 4 430284 9.0257318003116187e+05 6.2759611288355140e+05 3.4512253891352391e-14 5.3633972880316770e+05 8.9298450488557667e+05 9.9563804184882873e+04 -999 2.22849154e-01 6.409158732e-01 -8.99919956e-02
 7 4 430284 9.2521844660683733e+05 6.4183698934280593e+05 3.2283470916196784e-14 5.5849707676058717e+05 9.1148620632230537e+05 7.9614956186153810e+04 -999 2.38632150e-01 6.263781485e-01 -9.66523962e-02
 8 4 430284 9.8485988397133409e+05 6.3449744288105180e+05 3.0641664812824139e-14 5.7012180476951262e+05 9.9100251265632664e+05 6.8368415136066527e+04 -999 2.50712241e-01 6.100148631e-01 -1.01609409e-01
 9 4 430284 1.1856569519591955e+06 6.8913396736292273e+05 2.9226937064325392e-14 6.2694603213347960e+05 1.2326092010979669e+06 6.0891958746606695e+04 -999 2.62903540e-01 5.899655155e-01 -1.06158161e-01
 10 4 430284 1.1115916043590351e+06 5.8446649797765666e+05 2.8431618515576040e-14 5.9668661170295079e+05 1.1499086363635922e+06 5.4868658135189777e+04 -999 2.69277215e-01 5.782290535e-01 -1.08457273e-01
 11 4 430284 1.0220427663335436e+06 5.7101231426032982e+05 2.7476304839201035e-14 5.8293607029664505e+05 1.0414614197866098e+06 4.9619584813668189e+04 -999 2.76694318e-01 5.638238179e-01 -1.11221364e-01
 12 4 430284 9.5071531469261157e+05 5.7451400761662249e+05 2.6715893368415044e-14 5.6002933348791732e+05 9.6221489345134981e+05 4.5375275943864399e+04 -999 2.82657984e-01 5.514565228e-01 -1.13349182e-01
 13 4 430284 1.0508580232488222e+06 5.8500399385812797e+05 2.6151679020028120e-14 5.8099365636635921e+05 1.0813305094432593e+06 4.2037476298487032e+04 -999 2.88603386e-01 5.380030692e-01 -1.15450120e-01
 14 4 430284 9.8157299247047317e+05 5.1525721178947616e+05 2.5731172743216825e-14 5.4598948929258960e+05 1.0057882667339756e+06 3.9141823753001947e+04 -999 2.91693056e-01 5.300535536e-01 -1.16593934e-01
 15 4 430284 1.1508767936498628e+06 6.5413787593953754e+05 2.5330084892938639e-14 5.9005130581404374e+05 1.2252810525228558e+06 3.6685695146862920e+04 -999 2.95061399e-01 5.206481117e-01 -1.17955553e-01
 16 4 430284 9.7315677327734872e+05 5.7913910337355477e+05 2.4889173427418895e-14 5.3254347635287512e+05 1.0304971606783808e+06 3.3842686424666834e+04 -999 2.97128649e-01 5.137730843e-01 -1.18862132e-01
 17 4 430284 8.6583900198629033e+05 4.8334766104372765e+05 2.4377042579125060e-14 5.0132958249972988e+05 8.7954578016990074e+05 3.1396337438350798e+04 -999 2.99553866e-01 5.048489680e-01 -1.19912905e-01
 18 4 430284 8.2433297178094147e+05 4.7284712388162105e+05 2.3961553940558631e-14 4.8030598234433361e+05 8.3319224262050143e+05 2.9286466910702977e+04 -999 3.01259537e-01 4.976383204e-01 -1.20599022e-01
 19 4 430284 9.5648656505085516e+05 5.1208635503738659e+05 2.3606902108506681e-14 4.9493209319748898e+05 1.0043769329080416e+06 2.7496006729824745e+04 -999 3.02888002e-01 4.901323742e-01 -1.21177215e-01
 20 4 430284 8.7909291223180410e+05 4.1909624430033553e+05 2.3412487910598061e-14 4.6963975228390726e+05 9.1118241088567278e+05 2.5923967509019451e+04 -999 3.03873159e-01 4.852101690e-01 -1.21473944e-01
 21 4 430284 8.0194472603252786e+05 4.2702525176333799e+05 2.3093927481559776e-14 4.4836466768913221e+05 8.2941551618707296e+05 2.4121316490144447e+04 -999 3.04837219e-01 4.796263549e-01 -1.21737822e-01
 22 4 430284 7.2055948097687401e+05 4.1206477921998914e+05 2.2745959621552506e-14 4.1841064573012479e+05 7.3721479367715737e+05 2.2562903579502505e+04 -999 3.05820520e-01 4.734949902e-01 -1.21994239e-01
 23 4 430284 7.4138271670441260e+05 4.1222109893288498e+05 2.2443995856131439e-14 4.1088435878708999e+05 7.5908413451774511e+05 2.1196618865279313e+04 -999 3.06794466e-01 4.668145178e-01 -1.22243141e-01
 24 4 430284 7.4497461304526532e+05 3.7362950791043136e+05 2.2283874249153210e-14 4.0249910492346960e+05 7.6206822164512787e+05 1.9987947179188468e+04 -999 3.07470738e-01 4.616668773e-01 -1.22419915e-01
 25 4 430284 8.0528866586318309e+05 4.1128320404571522e+05 2.2153268106442631e-14 4.0095235975660145e+05 8.5031896589266555e+05 1.8910737194601395e+04 -999 3.08019199e-01 4.571930460e-01 -1.22569373e-01
 26 4 430284 6.8065277371741412e+05 3.6608745674219681e+05 2.1914606780870800e-14 3.7003744322307018e+05 7.1616329678969132e+05 1.7675833398383213e+04 -999 3.08487858e-01 4.525831398e-01 -1.22695998e-01
 27 4 430284 6.0085900186293444e+05 3.4729244887825579e+05 2.1681157621357590e-14 3.4618728917555994e+05 6.1624625038106320e+05 1.6584612929845658e+04 -999 3.08966721e-01 4.476480457e-01 -1.22828614e-01
 28 4 430284 6.1089627835363441e+05 3.3730003782094945e+05 2.1488802822642643e-14 3.3545558190430881e+05 6.2259306520123023e+05 1.5625951419538836e+04 -999 3.09469140e-01 4.422647717e-01 -1.22971194e-01
 29 4 430284 6.2551665562411060e+05 3.1709489925862121e+05 2.1350060422420895e-14 3.2897310057545046e+05 6.4322293532693794e+05 1.4797601481745245e+04 -999 3.09839148e-01 4.381811790e-01 -1.23077826e-01
 30 4 430284 6.8582194885987078e+05 3.6156926846839319e+05 2.1227060743481537e-14 3.3073456384056568e+05 7.2810935461020283e+05 1.4057618507539584e+04 -999 3.10160198e-01 4.345624414e-01 -1.23169348e-01
 31 4 430284 5.7635525456604711e+05 3.1636724315365171e+05 2.1001544071202877e-14 3.0299776891319331e+05 6.1209195927210327e+05 1.3165720707000011e+04 -999 3.10428226e-01 4.309866616e-01 -1.23238940e-01
 32 4 430284 4.9189333057730581e+05 2.8814074636577273e+05 2.0742975977959222e-14 2.7859408383850794e+05 5.0845773814266716e+05 1.2354104194362815e+04 -999 3.10734089e-01 4.268803827e-01 -1.23317599e-01
 33 4 430284 4.7786311368148477e+05 2.7505075167366979e+05 2.0508972347365488e-14 2.6376980039360799e+05 4.8548724253557733e+05 1.1633986583990041e+04 -999 3.11046056e-01 4.226642803e-01 -1.23397761e-01
 34 4 430284 5.3495333246123011e+05 2.8408442140055215e+05 2.0341391067309245e-14 2.6396837632683571e+05 5.5575610694490722e+05 1.1000489482638068e+04 -999 3.11338692e-01 4.186731942e-01 -1.23473345e-01
 35 4 430284 5.2969710059983586e+05 2.6146194858095754e+05 2.0247259373560800e-14 2.5828953047223328e+05 5.5376880785013305e+05 1.0452216055388910e+04 -999 3.11539085e-01 4.159057788e-01 -1.23525472e-01
 36 4 430284 4.5912042346045753e+05 2.5273030763395113e+05 2.0032939995989676e-14 2.3837413275273674e+05 4.8436238842579897e+05 9.8065480397505835e+03 -999 3.11734207e-01 4.127857897e-01 -1.23572540e-01
 37 4 430284 3.8878532061129203e+05 2.3095715144149226e+05 1.9789701392271416e-14 2.1678876974925937e+05 4.0390383231960423e+05 9.2207604859804251e+03 -999 3.11952294e-01 4.093506837e-01 -1.23626201e-01
 38 4 430284 3.7034832133815967e+05 2.1491670589754396e+05 1.9545355660399734e-14 2.0234686664323919e+05 3.7474496333327005e+05 8.6790499588908733e+03 -999 3.12194798e-01 4.055810109e-01 -1.23686917e-01
 39 4 430284 4.0034613404132868e+05 2.1443544498958846e+05 1.9377248229385553e-14 1.9879087689601185e+05 4.1276146269866347e+05 8.1994737753713325e+03 -999 3.12405969e-01 4.023350075e-01 -1.23740619e-01
 40 4 430284 4.2895168064087146e+05 2.3379256661832967e+05 1.9267487215124285e-14 1.9807891637901650e+05 4.5471018167771521e+05 7.7798891801325208e+03 -999 3.12573659e-01 3.997744743e-01 -1.23783861e-01
 41 4 430284 3.6354899873902771e+05 2.0432122427847356e+05 1.9047798300642575e-14 1.8132869878473427e+05 3.8810453385369800e+05 7.2899601474662686e+03 -999 3.12725068e-01 3.971634169e-01 -1.23820115e-01
 42 4 430284 2.9999759931420162e+05 1.8491747647588252e+05 1.8782169184637774e-14 1.6422079257880687e+05 3.1454232099897193e+05 6.8489729218169305e+03 -999 3.12903679e-01 3.941571213e-01 -1.23863732e-01
 43 4 430284 2.7533895714837388e+05 1.6910403026494078e+05 1.8506688966546928e-14 1.5131126936518372e+05 2.7859836082200462e+05 6.4491985308273815e+03 -999 3.13099631e-01 3.909354845e-01 -1.23912459e-01
 44 4 430284 2.9666641748384136e+05 1.7043325860987924e+05 1.8278678582042437e-14 1.4681286129944710e+05 3.0419740162679605e+05 6.0867208430262835e+03 -999 3.13281401e-01 3.880056947e-01 -1.23958391e-01
 45 4 430284 3.2629158042268612e+05 1.7997380013122872e+05 1.8106187335999598e-14 1.4696593171957659e+05 3.4218830450991850e+05 5.7616765194704822e+03 -999 3.13442060e-01 3.854489493e-01 -1.23999571e-01
 46 4 430284 2.7655652109488315e+05 1.6289811893607085e+05 1.7895718868829441e-14 1.3448375291370213e+05 2.9579556336526858e+05 5.3613738718761542e+03 -999 3.13571556e-01 3.831606092e-01 -1.24030479e-01
 47 4 430284 2.2217734782391964e+05 1.4429466244858661e+05 1.7632054730605508e-14 1.2008465944750067e+05 2.3566516031268483e+05 5.0037278975163590e+03 -999 3.13729706e-01 3.804471475e-01 -1.24068755e-01
 48 4 430284 1.9537014431021741e+05 1.3042932793673566e+05 1.7346383213953613e-14 1.0832467755889648e+05 1.9879541402253206e+05 4.6838595752397632e+03 -999 3.13908346e-01 3.774568404e-01 -1.24112770e-01
 49 4 430284 2.0448966300638567e+05 1.2873474813931022e+05 1.7105213256285291e-14 1.0271480758609565e+05 2.0929537934020799e+05 4.3975306273131837e+03 -999 3.14076224e-01 3.747082753e-01 -1.24154919e-01
 50 4 430284 2.2255406819029877e+05 1.3769043823584085e+05 1.6927219338185468e-14 1.0075425884638239e+05 2.3467121372863313e+05 4.1430016717447352e+03 -999 3.14221379e-01 3.723667638e-01 -1.24192123e-01
 51 4 430284 1.8849761166201771e+05 1.2043578532388360e+05 1.6722784643654743e-14 9.1925203481686593e+04 2.0234454649096579e+05 3.8169032018448552e+03 -999 3.14346685e-01 3.701675350e-01 -1.24222385e-01
 52 4 430284 1.5145351892437978e+05 1.0638839605789843e+05 1.6478556195324167e-14 8.2233750224184056e+04 1.6252209261733954e+05 3.5106278260900399e+03 -999 3.14497267e-01 3.675816447e-01 -1.24259447e-01
 53 4 430284 1.2940304892484202e+05 9.6483963787661589e+04 1.6195853755650024e-14 7.3479977377792311e+04 1.3442877508080442e+05 3.2485958053160020e+03 -999 3.14671238e-01 3.646585265e-01 -1.24303257e-01
 54 4 430284 1.2921324974095913e+05 9.3008972850758248e+04 1.5943493760997229e-14 6.8210394985160427e+04 1.3300147932574622e+05 3.0159794992556981e+03 -999 3.14842705e-01 3.618316742e-01 -1.24347815e-01
 55 4 430284 1.3460797246178030e+05 9.4101671126611473e+04 1.5747248718705570e-14 6.5315084739565507e+04 1.4107830071093389e+05 2.8178022026068365e+03 -999 3.14993101e-01 3.593800295e-01 -1.24388588e-01
 56 4 430284 1.1558074881427125e+05 8.6061587368906796e+04 1.5550405967082917e-14 6.0210866462857921e+04 1.2342541493644718e+05 2.5443026596123173e+03 -999 3.15117929e-01 3.571764499e-01 -1.24421611e-01
 57 4 430284 9.3733345613550060e+04 7.8458790947471600e+04 1.5316237845851572e-14 5.4369915228890561e+04 1.0092239203831881e+05 2.3169064276283248e+03 -999 3.15269532e-01 3.545434528e-01 -1.24462704e-01
 58 4 430284 7.7761358532990198e+04 7.1859488858616227e+04 1.5017045290587924e-14 4.8557032853238408e+04 8.2158877449734078e+04 2.1040513515635844e+03 -999 3.15450276e-01 3.514522776e-01 -1.24513418e-01
 59 4 430284 7.2701749759377388e+04 6.8024236043268291e+04 1.4746327025469250e-14 4.4438045500321568e+04 7.5537817255313712e+04 1.9292407499997412e+03 -999 3.15629521e-01 3.484204553e-01 -1.24566500e-01
 60 4 430284 7.0876354065084539e+04 6.5755684209216633e+04 1.4521314659038960e-14 4.1596871527805291e+04 7.3703916821183098e+04 1.7802229461027111e+03 -999 3.15791908e-01 3.456780147e-01 -1.24618229e-01
 61 4 430284 6.1848642109145141e+04 6.2188518468874579e+04 1.4312303068890462e-14 3.8604889912948980e+04 6.5107857532421716e+04 1.5925339931715846e+03 -999 3.15920464e-01 3.432671963e-01 -1.24657702e-01
 62 4 430284 5.1215064902868304e+04 5.8347087083050312e+04 1.4037932988547042e-14 3.5085705295551859e+04 5.4092163116025724e+04 1.4207971974240959e+03 -999 3.16077821e-01 3.403217494e-01 -1.24706829e-01
 63 4 430284 4.2439510033562430e+04 5.4447174617488199e+04 1.3705974871652816e-14 3.1317470026798808e+04 4.4094920608167879e+04 1.2820340624381042e+03 -999 3.16266169e-01 3.367797365e-01 -1.24767423e-01
 64 4 430284 3.7977614824099379e+04 5.1371869931050904e+04 1.3383801770700632e-14 2.8254589283759906e+04 3.8835516071190337e+04 1.1689763289027683e+03 -999 3.16449913e-01 3.332612889e-01 -1.24830062e-01
 65 4 430284 3.5119674477435707e+04 4.8962283578526090e+04 1.3103961500117419e-14 2.5888721426983968e+04 3.5644901734727027e+04 1.0767008636712203e+03 -999 3.16613261e-01 3.300231614e-01 -1.24890836e-01
 66 4 430284 3.1181069308433551e+04 4.6648138084125174e+04 1.2853629987734671e-14 2.3928418264493615e+04 3.1695489948170074e+04 9.6076456598106347e+02 -999 3.16719869e-01 3.270456084e-01 -1.24921980e-01
 67 4 430284 2.6708391074746400e+04 4.4002216746571423e+04 1.2540138305224349e-14 2.1646199073770087e+04 2.7010526118115646e+04 8.6995934177267463e+02 -999 3.16841605e-01 3.233162523e-01 -1.24954753e-01
 68 4 430284 2.2852241574067779e+04 4.1153634427067278e+04 1.2162032668037067e-14 1.9199931292144134e+04 2.2872449378607438e+04 8.0447117479018107e+02 -999 3.16972142e-01 3.187509633e-01 -1.24985561e-01
 69 4 430284 2.0390765152294895e+04 3.8675839564290523e+04 1.1791068899676147e-14 1.7019880446221428e+04 2.0415193113347515e+04 7.5817255946726402e+02 -999 3.17085310e-01 3.141118265e-01 -1.25003066e-01
 70 4 430284 1.8791297592234834e+04 3.6656643454604789e+04 1.1461280555841189e-14 1.5409610180501868e+04 1.8994106917481564e+04 7.2321879301437150e+02 -999 3.17171865e-01 3.097262595e-01 -1.25010415e-01
 71 4 430284 1.6906497854999252e+04 3.4630544725723645e+04 1.5479597920759321e-13 1.4013772755458800e+04 1.7424236612155350e+04 6.7449031404060349e+02 -999 3.17184606e-01 3.048981200e-01 -1.24938012e-01
 72 4 430284 1.5152576934809978e+04 3.2340807442283382e+04 3.2331064227489744e-13 1.2679817062405760e+04 1.6059554439055726e+04 6.6244251388356929e+02 -999 3.17204081e-01 2.985244774e-01 -1.24825800e-01
 73 4 430284 1.4220035121782674e+04 3.0068067647253934e+04 4.7818989957008100e-13 1.1808926996613329e+04 1.5551251972463248e+04 6.9003567702156681e+02 -999 3.17253066e-01 2.906280785e-01 -1.24677583e-01
 74 4 430284 1.4221173538312361e+04 2.8287463590901425e+04 5.7830693390166653e-13 1.1621561080533378e+04 1.5892690188030439e+04 7.4610832017298105e+02 -999 3.17360013e-01 2.825483940e-01 -1.24541108e-01
 75 4 430284 1.4612931024577794e+04 2.6925760366851322e+04 6.2622661213369289e-13 1.1781898664385924e+04 1.6528918111269002e+04 8.4793583724395478e+02 -999 3.17545458e-01 2.745412579e-01 -1.24448729e-01
 76 4 430284 1.4228537824152496e+04 2.4904283630919956e+04 4.8152866647223177e-13 1.1016336721137906e+04 1.6383504501226851e+04 1.0595685510497387e+03 -999 3.17969437e-01 2.634505980e-01 -1.24405755e-01
 77 4 430284 1.4347635054054172e+04 2.3110977790416895e+04 3.3396383674840778e-13 1.0483761494728007e+04 1.6576631118554651e+04 1.6796627297032460e+03 -999 3.18840834e-01 2.478725257e-01 -1.24563304e-01
 78 4 430284 1.4628754057343873e+04 2.2397334262097418e+04 2.2684879672572828e-13 1.0306528708673473e+04 1.6732560118838494e+04 3.4766300873287983e+03 -999 3.20104585e-01 2.305507488e-01 -1.25164841e-01
 79 4 430284 1.4965827890969875e+04 2.2850539672809799e+04 1.5898026871862381e-13 1.0416502754808569e+04 1.6748602558263548e+04 9.7478775996491931e+03 -999 3.21380750e-01 2.134054308e-01 -1.26309290e-01
 80 4 430284 1.5392248197248928e+04 2.3814918880301990e+04 1.2137772829984736e-13 1.0630246915655327e+04 1.6834775264215055e+04 2.1224543084608868e+04 -999 3.22066576e-01 1.998386897e-01 -1.27627367e-01
 81 4 430284 1.3518110123399018e+04 1.9426102748679750e+04 1.5688554298025662e-13 9.8119510214163893e+03 1.4641526507488083e+04 1.4293347252359614e+05 -999 3.22511451e-01 1.744807658e-01 -1.30684083e-01
 82 4 430284 1.2085605995729580e+04 1.7718576885357859e+04 3.4419035059943717e-13 9.6615698724252507e+03 1.3066124991339300e+04 1.6475185761501649e+05 -999 3.20859158e-01 1.518510534e-01 -1.33517126e-01
 83 4 430284 1.1328293475397541e+04 2.9996093720381374e+04 4.0253245587823205e-13 9.9036952165422099e+03 1.4678021590924534e+04 1.3315242512386377e+05 -999 3.19248548e-01 1.446444958e-01 -1.34022683e-01
 84 4 430284 1.1161084961916511e+04 2.8931473551580235e+04 4.1363415742028502e-13 8.9004955787127456e+03 1.3787406429468687e+04 9.2596047423306416e+04 -999 3.18834360e-01 1.432682757e-01 -1.34056074e-01
 85 4 430284 1.1059674080561932e+04 2.5515629221227107e+04 4.2085106116740504e-13 8.7743352700880114e+03 1.2448965777712092e+04 6.0606820020850777e+04 -999 3.18565442e-01 1.424081561e-01 -1.34069349e-01
 86 4 430284 1.0784115305269101e+04 1.5847286391350863e+04 2.9754424222101140e-13 8.6148251121939466e+03 1.1272757459202863e+04 4.1489729623020896e+04 -999 3.18276106e-01 1.402869728e-01 -1.34235280e-01
 87 4 430284 1.0590253579769289e+04 1.5877314803321156e+04 2.2858388407182229e-13 8.4222743437285790e+03 1.0971232321552507e+04 4.2902429946737553e+04 -999 3.17949113e-01 1.381689951e-01 -1.34385724e-01
 88 4 430284 1.0465226831992748e+04 1.6059019803551013e+04 1.8837712619800389e-13 8.1948900668231290e+03 1.0738142684425213e+04 4.4268635060136861e+04 -999 3.17601410e-01 1.361134676e-01 -1.34525161e-01
 89 4 430284 1.0441209945217795e+04 1.6327690097493884e+04 1.6271253026961555e-13 8.0243199299107519e+03 1.0598864764841417e+04 4.5496526567491666e+04 -999 3.17232258e-01 1.341550617e-01 -1.34652644e-01
 90 4 430284 1.0518821772004410e+04 1.6606024445118608e+04 1.4586272416894403e-13 7.8171732734296820e+03 1.0562843178688663e+04 4.6552593138049975e+04 -999 3.16836969e-01 1.323132644e-01 -1.34765310e-01
 91 4 430284 1.0672177013187105e+04 1.7047860109381912e+04 1.4124810493658266e-13 7.6586289966106988e+03 1.0586542831930139e+04 4.7263687605915751e+04 -999 3.16247313e-01 1.300309564e-01 -1.34882840e-01
 92 4 430284 1.0710136240807969e+04 1.7374620752024457e+04 1.4723799725959702e-13 7.5087997830730537e+03 1.0543370347497481e+04 4.7948018662513052e+04 -999 3.15605523e-01 1.279095604e-01 -1.34969306e-01
 93 4 430284 1.0532358897069989e+04 1.7562019917962680e+04 1.4831201262425440e-13 7.3692086183475931e+03 1.0324968850231235e+04 4.8411151394405839e+04 -999 3.14910454e-01 1.259199293e-01 -1.35021646e-01
 94 4 430284 1.0170999672183059e+04 1.7638017181246571e+04 1.4623356402484277e-13 7.3092316769232257e+03 9.9608840778980757e+03 4.8640960001016058e+04 -999 3.14159755e-01 1.240354450e-01 -1.35037034e-01
 95 4 430284 9.7554052314351102e+03 1.7656681348102786e+04 1.4582240049644221e-13 7.3830389447215284e+03 9.5699429059279828e+03 4.8652750765345729e+04 -999 3.13353012e-01 1.222399254e-01 -1.35013136e-01
 96 4 430284 9.3801003513594624e+03 1.7673990160873174e+04 1.4062219134080028e-13 7.5332180937668772e+03 9.2340969495153931e+03 4.8450536377907381e+04 -999 3.12493369e-01 1.205253084e-01 -1.34946535e-01
 97 4 430284 9.0760906235823841e+03 1.7646755832601651e+04 1.5775630403729316e-13 7.6951661575474582e+03 8.9621711397785784e+03 4.7961374144977759e+04 -999 3.11585938e-01 1.188885397e-01 -1.34839533e-01
 98 4 430284 8.8458582547131809e+03 1.7603209279712133e+04 1.6770879096582546e-13 7.8116976843530201e+03 8.7461034024406435e+03 4.7182594797821192e+04 -999 3.10637030e-01 1.173311996e-01 -1.34690744e-01
 99 4 430284 8.6540996112922985e+03 1.7468261383016470e+04 1.7251842074536956e-13 7.8817794312394508e+03 8.5495947408481152e+03 4.6128767382358332e+04 -999 3.09651488e-01 1.158514069e-01 -1.34498441e-01
 100 4 430284 8.5062480323274722e+03 1.7358752518932139e+04 1.7702449022801107e-13 7.8637463082604036e+03 8.3874077357104288e+03 4.4862463870830215e+04 -999 3.08636051e-01 1.144443765e-01 -1.34261776e-01
 101 4 430284 8.3560586693886398e+03 1.7062713929295678e+04 2.3078936461238351e-13 7.7036805393693057e+03 8.2112408233991391e+03 4.2950885482130172e+04 -999 3.07325926e-01 1.127778920e-01 -1.33896273e-01
 102 4 430284 8.2471358589661304e+03 1.6703511945701186e+04 2.9092604530464334e-13 7.4225115717582739e+03 8.0618186055999558e+03 4.0406783429076320e+04 -999 3.06002110e-01 1.111971877e-01 -1.33469573e-01
 103 4 430284 8.1648276099966288e+03 1.6290435819318436e+04 3.0040840224898616e-13 7.0778750555265606e+03 7.9318162641820227e+03 3.7683613911651140e+04 -999 3.04685102e-01 1.096921953e-01 -1.32990704e-01
 104 4 430284 8.1102707060306702e+03 1.5839767942209657e+04 2.8947552483563601e-13 6.7342342672638251e+03 7.8299982182445838e+03 3.4958763313473079e+04 -999 3.03398590e-01 1.082524157e-01 -1.32471110e-01
 105 4 430284 8.0953416833944320e+03 1.5410733494317334e+04 2.8102701710891932e-13 6.4752243115332594e+03 7.7711292709168738e+03 3.2356122688937263e+04 -999 3.02179393e-01 1.068811484e-01 -1.31927696e-01
 106 4 430284 8.0302655114826484e+03 1.4716614160054976e+04 3.1342582751645727e-13 6.2072107446927457e+03 7.6630251090464490e+03 2.9435218467171097e+04 -999 3.00800522e-01 1.052515309e-01 -1.31230234e-01
 107 4 430284 7.9888031040248989e+03 1.4063015140985581e+04 3.8849323315192692e-13 6.0775889799089182e+03 7.5830489405086519e+03 2.6665034980611847e+04 -999 2.99651240e-01 1.037438809e-01 -1.30544792e-01
 108 4 430284 7.9432840723240552e+03 1.3453648963925973e+04 3.9844967482411951e-13 6.0949831977079548e+03 7.5096115154475783e+03 2.4442851232285335e+04 -999 2.98784544e-01 1.023751444e-01 -1.29893165e-01
 109 4 430284 7.8924609540447718e+03 1.2897012268357295e+04 3.7959178021118300e-13 6.2416194056521081e+03 7.4470196776359362e+03 2.2500177592477550e+04 -999 2.98230600e-01 1.011452492e-01 -1.29290260e-01
 110 4 430284 7.8368474165376601e+03 1.2403822193097869e+04 3.6238890336326033e-13 6.4738667003412929e+03 7.3957074066251453e+03 2.0840814282109426e+04 -999 2.98000803e-01 1.000390871e-01 -1.28746269e-01
 111 4 430284 7.5934093295979819e+03 1.1828688127509316e+04 3.2715248991114141e-13 6.7363553957470776e+03 7.1733622703018618e+03 1.9187617507430619e+04 -999 2.98208693e-01 9.880314107e-02 -1.28172511e-01
 112 4 430284 7.4313216699063587e+03 1.1354743700317724e+04 3.6853580586308507e-13 7.0690083499740158e+03 7.0261392543068650e+03 1.7789998103150818e+04 -999 2.98921161e-01 9.766656020e-02 -1.27720938e-01
 113 4 430284 7.3406661624324552e+03 1.1018659943500243e+04 3.6180782639654821e-13 7.3997174124790663e+03 6.9405371090185618e+03 1.6661777776852243e+04 -999 3.00132691e-01 9.659071463e-02 -1.27407990e-01
 114 4 430284 7.3238079001245515e+03 1.0852393024268360e+04 3.3624311877542694e-13 7.6307421389341816e+03 6.9025621339650561e+03 1.6033587398712471e+04 -999 3.01848354e-01 9.555701241e-02 -1.27253011e-01
 115 4 430284 7.4183419033303935e+03 1.0884102086602057e+04 3.1697701572688263e-13 7.9501787342416974e+03 6.9753059853394489e+03 1.6201601981061805e+04 -999 3.04076665e-01 9.455779101e-02 -1.27274809e-01
 116 4 430284 7.3317208682857017e+03 1.0917520262589460e+04 3.7425816598573745e-13 8.3081263459967322e+03 6.9358331505586484e+03 1.7190656442849751e+04 -999 3.07639576e-01 9.339102601e-02 -1.27598232e-01
 117 4 430284 7.4290212230763800e+03 1.1204501613248174e+04 4.4721952804977258e-13 8.6266237477116811e+03 7.0877118921403508e+03 1.9082549389207070e+04 -999 3.11934489e-01 9.232324774e-02 -1.28223587e-01
 118 4 430284 7.5440736292907122e+03 1.1612171587615630e+04 4.3414685367776453e-13 8.8362866378238978e+03 7.2598928012218685e+03 2.1953349941355475e+04 -999 3.16869183e-01 9.133350330e-02 -1.29139711e-01
 119 4 430284 7.7180789800104121e+03 1.2131148509628074e+04 3.9720073214704161e-13 8.8644025135630636e+03 7.4884351685575402e+03 2.5836863770434244e+04 -999 3.22337544e-01 9.039217069e-02 -1.30324690e-01
 120 4 430284 8.0639762040060214e+03 1.2907557442839756e+04 3.6928029290313440e-13 8.7542955982293279e+03 8.0939921509562055e+03 3.4520903071007495e+04 -999 3.28230903e-01 8.948104536e-02 -1.31752400e-01
 121 4 430284 7.6751797422381333e+03 1.2235353467331350e+04 2.9407046406853689e-13 8.5509910925887325e+03 7.5519200321513208e+03 4.5372884252211290e+04 -999 3.33870925e-01 8.869444673e-02 -1.33229239e-01
 122 4 430284 8.0257247450151845e+03 1.2764993939731941e+04 3.0005356484310228e-13 8.6389842572250909e+03 8.0354108722110777e+03 7.1223028825189976e+04 -999 3.39686010e-01 8.796221607e-02 -1.34863553e-01
 123 4 430284 8.6312651481566245e+03 1.6822789152864618e+04 2.6977265414608009e-13 8.8802208584961227e+03 9.3419207049847828e+03 9.3262059905886155e+04 -999 3.45623534e-01 8.724821258e-02 -1.36643461e-01
 124 4 430284 8.6344216335326273e+03 2.1041577885606530e+04 2.5951187893156405e-13 8.9482383647588595e+03 1.0685385714467564e+04 1.0644172984454260e+05 -999 3.47191868e-01 8.705713194e-02 -1.37142671e-01
 125 4 430284 8.6402570945534007e+03 2.1800000620136729e+04 2.5466771577921431e-13 8.9483530834079538e+03 1.1250200447885141e+04 1.1911875922425967e+05 -999 3.47994388e-01 8.695903804e-02 -1.37401924e-01
 126 4 430284 8.8121214045677516e+03 1.3533465703039590e+04 1.9359198956965782e-13 8.8571340265532890e+03 8.7328349236785070e+03 8.5788570638992736e+04 -999 3.52296650e-01 8.642770098e-02 -1.38780526e-01
 127 4 430284 9.0167136208747306e+03 1.3105410703474834e+04 1.9474079058210423e-13 8.8381804273849102e+03 8.9165291948793711e+03 7.5343597392528522e+04 -999 3.56624388e-01 8.591242082e-02 -1.40224490e-01
 128 4 430284 9.0601813101107036e+03 1.3786076563277422e+04 1.8112374315707635e-13 8.8517256402751136e+03 8.9996726060716064e+03 7.4534988887004787e+04 -999 3.60933775e-01 8.542179998e-02 -1.41716803e-01
 129 4 430284 8.9953843212872980e+03 2.5563776436587981e+04 1.6905846516631950e-13 9.2270565925051487e+03 9.8755794490825992e+03 7.3121517964146013e+04 -999 3.63113281e-01 8.518146356e-02 -1.42496123e-01
 130 4 430284 8.9570975904278457e+03 3.1407083590696875e+04 1.6582680072579622e-13 8.9230808534738662e+03 1.1786528390325391e+04 7.1793372582589131e+04 -999 3.63815952e-01 8.510507558e-02 -1.42750742e-01
 131 4 430284 8.8766176684086604e+03 1.2134871526624222e+04 1.5141900451085290e-13 8.7521233851051766e+03 8.8306692199796471e+03 7.2408299029220638e+04 -999 3.67560817e-01 8.470476632e-02 -1.44108610e-01
 132 4 430284 8.7847716362721821e+03 1.1649835716991685e+04 1.5386108887313765e-13 8.6514959469950900e+03 8.7317364521377094e+03 7.3920965096481785e+04 -999 3.71224976e-01 8.429944122e-02 -1.45464174e-01
 133 4 430284 8.6490572433180969e+03 1.1417226111044689e+04 1.4006574505913421e-13 8.6871030229977332e+03 8.6017107479240894e+03 7.4847074131407455e+04 -999 3.74761188e-01 8.391381371e-02 -1.46794220e-01
 134 4 430284 8.5595909095624138e+03 1.4059149602346586e+04 1.2176358296320056e-13 8.8203039100834121e+03 8.8079453068434614e+03 7.6045735307940573e+04 -999 3.78148993e-01 8.353973366e-02 -1.48085463e-01
 135 4 430284 8.5226986194561032e+03 1.8709307959963153e+04 1.1819891184828754e-13 8.7378779523509183e+03 1.0407415323098281e+04 7.4558890813192731e+04 -999 3.78992391e-01 8.344180874e-02 -1.48410562e-01
 136 4 430284 8.2928780620923444e+03 1.0698372388612324e+04 1.3061867918453592e-13 8.6646177745258465e+03 8.2446109226632707e+03 7.8715319316130961e+04 -999 3.84244185e-01 8.276889676e-02 -1.50456488e-01
 137 4 430284 8.0742965504469030e+03 1.0349701657689833e+04 1.5113242871411844e-13 8.5806024136169945e+03 7.9957364104340768e+03 1.0942548060397065e+05 -999 3.89035696e-01 8.205988919e-02 -1.52360781e-01
 138 4 430284 8.0252545012873416e+03 1.2082770246854903e+04 1.4034432407406118e-13 8.6219839639723923e+03 8.0976759400602277e+03 1.0595260075910127e+05 -999 3.93375263e-01 8.130110658e-02 -1.54119629e-01
 139 4 430284 8.0065875978947661e+03 1.8411518756173624e+04 1.3305237957334775e-13 8.7043086160234579e+03 9.3811838190511680e+03 8.4687676688179577e+04 -999 3.94408214e-01 8.109299046e-02 -1.54547087e-01
 140 4 430284 7.9980217771403250e+03 2.2564016591358992e+04 1.3015042425656213e-13 8.6097076076654830e+03 1.1538940406388136e+04 7.0704816870732320e+04 -999 3.94821499e-01 8.100760234e-02 -1.54719103e-01
 141 4 430284 7.9636403370189973e+03 9.4949774864955361e+03 9.9086107692886949e-14 8.6221626414989423e+03 7.9540592191358865e+03 7.0785494166244054e+04 -999 3.99452495e-01 8.003573433e-02 -1.56667377e-01