TITLE = "005.01 ALPHA 3.10 GRIDLEVEL 3"

VARIABLES = "ITERATION"  "GRID_LEVEL"  "GRID_SIZE"  "CONTINUITY"  "MOMENTUMX"  "MOMENTUMY"  "MOMENTUMZ"  "ENERGY"  "TURB1"  "TURB2"  "CL_TOT"  "CD_TOT"  "CM_TOT"

DATASETAUXDATA ParticipantID   = "005"
DATASETAUXDATA SubmissionDate  = "10-31-2024"
DATASETAUXDATA Name            = "Jeffrey A. Housman"
DATASETAUXDATA Email           = "jeffrey.a.housman@nasa.gov"
DATASETAUXDATA Institution     = "NASA Ames Research Center"
DATASETAUXDATA SolverName      = "LAVA Curvilinear"
DATASETAUXDATA BasicAlgorithm  = "RANS"
DATASETAUXDATA TurbulenceModel = "SA-neg"
DATASETAUXDATA GridId          = "Multiblock"
DATASETAUXDATA Discretization  = "Finite difference"
DATASETAUXDATA Order           = "2"
DATASETAUXDATA DistanceCalc    = "Exact"
DATASETAUXDATA Notes           = " "

ZONE T = "005.01 - Alpha 3.10 - Grid Level 3"
AUXDATA Tstatic         = "271.0"
AUXDATA Deltat          = "-999"
AUXDATA GridFileName    = "ONERA-OAT15A_230mmChord_780mmSpan_upZ_2024_06_25-Structured_23mm_Level-3.x"
AUXDATA Misc            = " "
 0 3 234820 2.6744129867409955e+05 6.4528776572448120e+05 4.4403294074311870e-14 2.4275062936387354e+05 2.7310729263458896e+05 9.8302924974744394e+05 -999 1.04380672e-02 6.040111804e-01 -6.31901892e-03
 1 3 234820 3.7726742828356527e+05 5.0441528135036072e+05 3.9157025970640073e-14 1.9698595579084716e+05 3.6544451951949170e+05 6.3770277954476932e+05 -999 4.71037996e-02 5.781078779e-01 -2.18239284e-02
 2 3 234820 4.5880327562182682e+05 4.4468148673866992e+05 3.5226660976315707e-14 2.1869640854648701e+05 4.3914003320560599e+05 4.1424199114086071e+05 -999 8.81897681e-02 5.689418068e-01 -3.89793860e-02
 3 3 234820 5.3842701060693408e+05 4.0523155078988918e+05 3.2189623198046551e-14 2.5720506820100668e+05 5.1447390197867993e+05 2.6859006932632695e+05 -999 1.24110636e-01 5.671975136e-01 -5.44797467e-02
 4 3 234820 6.1529866647694341e+05 3.7486807387372525e+05 2.9807355385527846e-14 3.0408641422681330e+05 5.9321125750733609e+05 1.7122575631973639e+05 -999 1.55434272e-01 5.698305473e-01 -6.65014643e-02
 5 3 234820 6.9035705477383058e+05 3.7832605572201556e+05 2.7954120467301321e-14 3.5520620513469802e+05 6.7690540367454302e+05 9.2997479589328563e+04 -999 1.79898775e-01 5.738212506e-01 -7.55798212e-02
 6 3 234820 6.3614280726072018e+05 4.2302241184723488e+05 2.6562701414301631e-14 3.7780713508266606e+05 6.2606450004498812e+05 6.6321283512389957e+04 -999 1.96446172e-01 5.711982779e-01 -8.23802802e-02
 7 3 234820 6.5092294047790405e+05 4.4373821627330477e+05 2.5298501307291699e-14 3.9369335045140109e+05 6.3640715500753664e+05 5.3243637752037219e+04 -999 2.09805870e-01 5.645375961e-01 -8.83970508e-02
 8 3 234820 7.0771828224843065e+05 4.4398814716312720e+05 2.4419660349045562e-14 4.0093265137177869e+05 7.1072129116447840e+05 4.5546286248059849e+04 -999 2.20265953e-01 5.540256766e-01 -9.29576793e-02
 9 3 234820 8.2343106408352836e+05 4.6281326900599344e+05 2.3801360889153533e-14 4.3261927050734794e+05 8.4488574329245603e+05 4.0425437702868585e+04 -999 2.30942086e-01 5.399090095e-01 -9.71031402e-02
 10 3 234820 8.0992076637134491e+05 4.2333469642650080e+05 2.3416904493805762e-14 4.1750296853577934e+05 8.3935714613449085e+05 3.6367578587458796e+04 -999 2.37193649e-01 5.308371473e-01 -9.93908453e-02
 11 3 234820 7.1390504134184134e+05 3.8833022841860726e+05 2.2911779747111592e-14 4.0097512660635449e+05 7.2438285286981030e+05 3.2930402671476681e+04 -999 2.44914814e-01 5.189268872e-01 -1.02333128e-01
 12 3 234820 6.7244496818940912e+05 4.0262483668420091e+05 2.2476019785104700e-14 3.8641749659525568e+05 6.7875045720911596e+05 3.0068176365912626e+04 -999 2.50539043e-01 5.096574337e-01 -1.04458687e-01
 13 3 234820 7.0725137389867392e+05 3.7837385569833434e+05 2.2097046672022234e-14 3.8827674792172411e+05 7.1709030494428682e+05 2.7692074196847690e+04 -999 2.55769302e-01 5.001849536e-01 -1.06446029e-01
 14 3 234820 6.9455265845885186e+05 3.6330324997893069e+05 2.1807774541201600e-14 3.6893158250826929e+05 7.1484751483065519e+05 2.5714160862154607e+04 -999 2.58669924e-01 4.940482659e-01 -1.07605009e-01
 15 3 234820 7.3792852899592021e+05 3.9602571347833675e+05 2.1553699522506470e-14 3.8363977635435731e+05 7.6515340676666540e+05 2.4067271485471934e+04 -999 2.61567066e-01 4.873022424e-01 -1.08844192e-01
 16 3 234820 6.6084655525877187e+05 3.8572495861599135e+05 2.1288165510718284e-14 3.5593006030467217e+05 6.8912338255768013e+05 2.2130772404741718e+04 -999 2.63519987e-01 4.819755775e-01 -1.09741381e-01
 17 3 234820 5.7141551572368131e+05 3.1680462614605878e+05 2.0978529491548415e-14 3.2423784194468771e+05 5.8240655821192975e+05 2.0477478148821803e+04 -999 2.65745140e-01 4.754168459e-01 -1.10768300e-01
 18 3 234820 5.6842499705426057e+05 3.2697409926559433e+05 2.0712695912692997e-14 3.1536499067501776e+05 5.7883807566819445e+05 1.9095064842018633e+04 -999 2.67693844e-01 4.690113898e-01 -1.11636686e-01
 19 3 234820 5.8432285104190500e+05 2.9692032601059187e+05 2.0518655147831214e-14 3.1132819530423015e+05 5.9548924534144695e+05 1.7878353264524801e+04 -999 2.69263966e-01 4.631963147e-01 -1.12286390e-01
 20 3 234820 6.0281243138469919e+05 3.0164191625634197e+05 2.0401850413033546e-14 3.0148569090223627e+05 6.3014331426030700e+05 1.6792064119490886e+04 -999 2.70333244e-01 4.587343019e-01 -1.12689892e-01
 21 3 234820 5.0842743783260742e+05 2.7091878311308403e+05 2.0194608189928856e-14 2.7795479921564233e+05 5.2879076410206512e+05 1.5540572494693777e+04 -999 2.71399693e-01 4.534086429e-01 -1.13058879e-01
 22 3 234820 4.5856355465203855e+05 2.6602812834019680e+05 1.9994362401777697e-14 2.6151986039754213e+05 4.6748922112219769e+05 1.4466633682598880e+04 -999 2.72388400e-01 4.480654230e-01 -1.13379386e-01
 23 3 234820 4.6519723568600760e+05 2.5147070759622045e+05 1.9801869609865702e-14 2.5283584920886796e+05 4.7104944020287838e+05 1.3524067393531326e+04 -999 2.73396582e-01 4.421769693e-01 -1.13692218e-01
 24 3 234820 4.6259496385711915e+05 2.4328357493786496e+05 1.9669644000498359e-14 2.4295611976770576e+05 4.7782645877185918e+05 1.2715534995935148e+04 -999 2.74048724e-01 4.379517342e-01 -1.13890107e-01
 25 3 234820 5.4075703613129247e+05 3.0212399399277061e+05 1.9540420862472623e-14 2.5673078290521319e+05 5.7486028817055759e+05 1.1998727791222351e+04 -999 2.74732118e-01 4.331665593e-01 -1.14100712e-01
 26 3 234820 4.4099169314097648e+05 2.6773510409122839e+05 1.9320601661698682e-14 2.2773984457408907e+05 4.7200655142388539e+05 1.1159295955125503e+04 -999 2.75195564e-01 4.291075298e-01 -1.14243102e-01
 27 3 234820 3.6811941807539674e+05 2.1801602186330280e+05 1.9087687887010838e-14 2.0507610515985612e+05 3.8169422352125903e+05 1.0408858717073743e+04 -999 2.75669094e-01 4.247352927e-01 -1.14393301e-01
 28 3 234820 3.5410660438129696e+05 2.0411561351080544e+05 1.8870830611021852e-14 1.9294428843933559e+05 3.5839507826779759e+05 9.7405242364434907e+03 -999 2.76142820e-01 4.200940028e-01 -1.14547796e-01
 29 3 234820 3.6920912361926585e+05 2.0204953497198294e+05 1.8730594203556895e-14 1.8735725685771593e+05 3.8432508563650079e+05 9.1636417862713897e+03 -999 2.76490712e-01 4.164751377e-01 -1.14663892e-01
 30 3 234820 4.2892454616878642e+05 2.4676270827737759e+05 1.8613018112531464e-14 1.9556291846031934e+05 4.5827616354825429e+05 8.6459050809667715e+03 -999 2.76845598e-01 4.126439082e-01 -1.14783785e-01
 31 3 234820 3.5288622848972800e+05 2.2124120406117584e+05 1.8408647003346592e-14 1.7459999246367830e+05 3.8231899116696144e+05 7.9913355063727122e+03 -999 2.77079721e-01 4.095302405e-01 -1.14858817e-01
 32 3 234820 2.8267323219600640e+05 1.7936351703126129e+05 1.8159991775505276e-14 1.5372198325638458e+05 3.0039593955092324e+05 7.4146194184769083e+03 -999 2.77350903e-01 4.058911052e-01 -1.14945197e-01
 33 3 234820 2.5324382526332146e+05 1.5776419766726636e+05 1.7902909021850606e-14 1.3904326357514100e+05 2.5786017149100205e+05 6.9002063625522796e+03 -999 2.77645459e-01 4.018769726e-01 -1.15037930e-01
 34 3 234820 2.6939691417578975e+05 1.5435604193854853e+05 1.7702087120114422e-14 1.3395478396295651e+05 2.7760263907122664e+05 6.4457827809024711e+03 -999 2.77907408e-01 3.982353728e-01 -1.15119810e-01
 35 3 234820 2.7749659698757401e+05 1.5512420569787640e+05 1.7568001430888790e-14 1.3066351808292106e+05 2.9299667727217020e+05 6.0510342532342811e+03 -999 2.78102125e-01 3.954796572e-01 -1.15180893e-01
 36 3 234820 2.3583871046983948e+05 1.3852951577171762e+05 1.7365871040824560e-14 1.1868949319138305e+05 2.5254179867496021e+05 5.5138468662129490e+03 -999 2.78270417e-01 3.926160354e-01 -1.15230473e-01
 37 3 234820 1.9119918089878597e+05 1.2550455521753873e+05 1.7115016069640664e-14 1.0555836240768051e+05 2.0337350340883218e+05 5.0461514224866669e+03 -999 2.78467008e-01 3.893047893e-01 -1.15288783e-01
 38 3 234820 1.6636163120803033e+05 1.1169230593771633e+05 1.6835935051951691e-14 9.3834251222925057e+04 1.7044725485381240e+05 4.6429720703438707e+03 -999 2.78686660e-01 3.856455387e-01 -1.15354362e-01
 39 3 234820 1.7278601663320497e+05 1.0863632953840934e+05 1.6587647632048313e-14 8.7555082093416626e+04 1.7753424153683224e+05 4.2944895374298603e+03 -999 2.78894634e-01 3.822166898e-01 -1.15416964e-01
 40 3 234820 1.8376945504162856e+05 1.0949620636601334e+05 1.6396476938631990e-14 8.4905320147032951e+04 1.9235561064065012e+05 3.9901489338049673e+03 -999 2.79075227e-01 3.792486159e-01 -1.15472192e-01
 41 3 234820 1.5536109562184906e+05 1.0036619591833190e+05 1.6174706881806905e-14 7.6815436960558858e+04 1.6675395201271810e+05 3.5963650248182958e+03 -999 2.79214412e-01 3.765937327e-01 -1.15512405e-01
 42 3 234820 1.2171673639850707e+05 9.0041780178663015e+04 1.5896377040889869e-14 6.7363522107245415e+04 1.3122040732387660e+05 3.2562798385891874e+03 -999 2.79386225e-01 3.733863016e-01 -1.15562985e-01
 43 3 234820 1.0070257479970600e+05 8.0855339941753657e+04 1.5580222529645197e-14 5.8731345049549680e+04 1.0462902437844645e+05 2.9665037883378805e+03 -999 2.79583546e-01 3.697883948e-01 -1.15622477e-01
 44 3 234820 9.9652803087424036e+04 7.7385803313829863e+04 1.5307172449191095e-14 5.3682185422837407e+04 1.0293877921021948e+05 2.7185614331008214e+03 -999 2.79770485e-01 3.664487682e-01 -1.15680748e-01
 45 3 234820 1.0318693187922037e+05 7.7182205561065843e+04 1.5072120936103563e-14 5.0860281316130080e+04 1.0879036264622823e+05 2.5070314538098846e+03 -999 2.79935089e-01 3.635402431e-01 -1.15734335e-01
 46 3 234820 8.8099433877707183e+04 7.0800140994324538e+04 1.4846410979874799e-14 4.6509738344777332e+04 9.4985082745135005e+04 2.2127754917448906e+03 -999 2.80060982e-01 3.609603083e-01 -1.15775281e-01
 47 3 234820 7.0425671361224697e+04 6.4548748275777973e+04 1.4555986884523918e-14 4.1529393889728410e+04 7.6911958054980569e+04 1.9741816263039625e+03 -999 2.80213196e-01 3.578910567e-01 -1.15826123e-01
 48 3 234820 5.6613089362957951e+04 5.8838684897545922e+04 1.4210046698032333e-14 3.6498621828946831e+04 6.0731837616964753e+04 1.7673396030324930e+03 -999 2.80395288e-01 3.542764905e-01 -1.15889084e-01
 49 3 234820 5.1463491402868975e+04 5.5399608175860063e+04 1.3884894031344179e-14 3.2907883858853464e+04 5.3963515290879695e+04 1.5862830839231344e+03 -999 2.80576082e-01 3.507271911e-01 -1.15954976e-01
 50 3 234820 4.9410607214477088e+04 5.3424401545611174e+04 1.3600845758728316e-14 3.0498965269546577e+04 5.1793987333627425e+04 1.4520618262186210e+03 -999 2.80738010e-01 3.475501863e-01 -1.16018281e-01
 51 3 234820 4.3085705193063390e+04 5.0636760036750158e+04 1.3344503390001792e-14 2.8246471093349195e+04 4.5729868985097033e+04 1.2615035913701704e+03 -999 2.80860454e-01 3.447608863e-01 -1.16058735e-01
 52 3 234820 3.5665979568239760e+04 4.7594243244019410e+04 1.3027796127221140e-14 2.5625216024748723e+04 3.7996195623102547e+04 1.1085089564337202e+03 -999 2.81012277e-01 3.413323778e-01 -1.16107389e-01
 53 3 234820 2.9318300967292897e+04 4.4451196065329903e+04 1.2635276119504466e-14 2.2838953746119216e+04 3.0729828361054006e+04 9.8326316952016077e+02 -999 2.81196492e-01 3.371854941e-01 -1.16164513e-01
 54 3 234820 2.5839051718638195e+04 4.1890507980713512e+04 1.2244587714721701e-14 2.0560356894870634e+04 2.6574362376566853e+04 8.8421781134190178e+02 -999 2.81380503e-01 3.329854852e-01 -1.16220682e-01
 55 3 234820 2.3653975008069119e+04 3.9861796113384313e+04 1.1911178063299292e-14 1.8952252218620648e+04 2.4043933140410041e+04 8.0540261645596206e+02 -999 2.81528065e-01 3.291006169e-01 -1.16276849e-01
 56 3 234820 2.1185950191843658e+04 3.7951572791107101e+04 1.1601824601966362e-14 1.7470515268485789e+04 2.1508872356893553e+04 7.1256757329726349e+02 -999 2.81611660e-01 3.253613864e-01 -1.16276344e-01
 57 3 234820 1.8489145410099718e+04 3.5753987034872138e+04 1.1224048464276156e-14 1.5776568302507612e+04 1.8701641780701815e+04 6.4258683316909116e+02 -999 2.81706268e-01 3.206179240e-01 -1.16262929e-01
 58 3 234820 1.6188293116686567e+04 3.3376928439204530e+04 1.0763051247598551e-14 1.4001284047676321e+04 1.6368470059342944e+04 5.9465708726162336e+02 -999 2.81811458e-01 3.147383092e-01 -1.16229131e-01
 59 3 234820 1.4796711910718170e+04 3.1318180712229660e+04 1.0317283172108515e-14 1.2568533979284117e+04 1.5162018823664199e+04 5.6160119571463292e+02 -999 2.81912729e-01 3.087210234e-01 -1.16178425e-01
 60 3 234820 1.3974152450886710e+04 2.9617561801215314e+04 9.9227135715356164e-15 1.1508977397952685e+04 1.4639596611835719e+04 5.3737450040887927e+02 -999 2.82015202e-01 3.028897501e-01 -1.16119993e-01
 61 3 234820 1.2893510182908019e+04 2.7770923303147312e+04 9.5220361486604206e-15 1.0545086344443300e+04 1.3921181447032854e+04 5.0652682885247867e+02 -999 2.82101480e-01 2.958273916e-01 -1.15979665e-01
 62 3 234820 1.2154470735477615e+04 2.5695838047112917e+04 9.0021925599069815e-15 9.7540921407434471e+03 1.3582828413057581e+04 5.0535157665682686e+02 -999 2.82314965e-01 2.862690565e-01 -1.15806779e-01
 63 3 234820 1.2139890266044849e+04 2.3713100791481789e+04 8.5571069856217625e-15 9.4700555617335704e+03 1.3893512949839798e+04 5.3205743145881149e+02 -999 2.82766226e-01 2.745131838e-01 -1.15661018e-01
 64 3 234820 1.2619571563786494e+04 2.2189012376673323e+04 8.2091364239018778e-15 9.6453508610777553e+03 1.4541534413278490e+04 5.7792345865496975e+02 -999 2.83477086e-01 2.623832141e-01 -1.15649627e-01
 65 3 234820 1.3123278307719644e+04 2.1038013762588849e+04 8.0167526468291179e-15 9.9169933047485029e+03 1.5097539167190027e+04 6.6502958993431798e+02 -999 2.84416252e-01 2.501582563e-01 -1.15838293e-01
 66 3 234820 1.2780560300122133e+04 1.9114210268474279e+04 7.6457297114865119e-15 9.0848199575402978e+03 1.4672387782149670e+04 8.9789582454678043e+02 -999 2.86042837e-01 2.313201224e-01 -1.16646261e-01
 67 3 234820 1.2498442306403964e+04 1.8024802533349382e+04 7.3673499233581731e-15 8.5224139204924450e+03 1.4025061070559808e+04 1.9900037871548031e+03 -999 2.88326349e-01 2.049982692e-01 -1.18593760e-01
 68 3 234820 1.1970604095304687e+04 1.7728715058221431e+04 7.0250002533778822e-15 8.6035287104688759e+03 1.2906831897484317e+04 5.1329997495409016e+03 -999 2.89669230e-01 1.782950420e-01 -1.21767839e-01
 69 3 234820 1.1776710401998678e+04 1.7421852194307932e+04 6.5238936503650412e-15 8.6136225545810648e+03 1.2292778879543932e+04 7.7847779550225678e+03 -999 2.88964276e-01 1.679629796e-01 -1.23323311e-01
 70 3 234820 1.1805887807672498e+04 1.7268467890668613e+04 6.1775101422986962e-15 8.5917142998554918e+03 1.1983073335074716e+04 9.7216165516391666e+03 -999 2.87995866e-01 1.617645260e-01 -1.24205802e-01
 71 3 234820 9.7871410003912079e+03 1.4594833985909894e+04 2.4474674606139071e-13 7.8216614769511370e+03 1.0231291164004122e+04 2.6760936855618180e+04 -999 2.83859061e-01 1.468677696e-01 -1.25801229e-01
 72 3 234820 8.3589079373065488e+03 1.4026829878785378e+04 4.6351139942243579e-13 6.8448699073690495e+03 8.5339309558581554e+03 8.9548244663565973e+04 -999 2.74847557e-01 1.283501049e-01 -1.26508049e-01
 73 3 234820 7.7994688343179223e+03 2.3925604687749186e+04 5.2406258714775401e-13 5.4733756656091227e+03 8.6004946301707278e+03 5.1473971099063783e+04 -999 2.65402508e-01 1.160849284e-01 -1.25018813e-01
 74 3 234820 7.6683160248179138e+03 2.6227223876698816e+04 5.2329592976409865e-13 5.3542710791757409e+03 1.0222753148118099e+04 2.9016351575058703e+04 -999 2.64033472e-01 1.143497499e-01 -1.24561254e-01
 75 3 234820 7.4224791347684932e+03 2.9740297775412448e+04 5.2196079861796051e-13 5.2598085006508782e+03 1.1886337458084705e+04 1.8193655067199048e+04 -999 2.63247213e-01 1.132791937e-01 -1.24269991e-01
 76 3 234820 6.5115006508901388e+03 2.0627765811126559e+04 4.5378369694523207e-13 4.8179769020262966e+03 8.0816822182477381e+03 1.5086195060395052e+04 -999 2.59737279e-01 1.086350095e-01 -1.23007136e-01
 77 3 234820 5.7688476910529525e+03 1.4449417156431035e+04 3.8473555727731121e-13 4.6507992506020801e+03 5.8726904056622070e+03 1.3407342552021461e+04 -999 2.56804968e-01 1.036339210e-01 -1.21483180e-01
 78 3 234820 5.4739017777748059e+03 1.2647473249799426e+04 3.4320656835477240e-13 4.6286364503152072e+03 5.4479845384830242e+03 1.3567818618866086e+04 -999 2.56220167e-01 1.004829525e-01 -1.20561732e-01
 79 3 234820 5.2626210796306377e+03 1.1752954480238177e+04 3.1997008208600994e-13 4.6391033816836116e+03 5.2150416717483567e+03 1.3900907772879969e+04 -999 2.56827905e-01 9.867822171e-02 -1.20198709e-01
 80 3 234820 5.2278047513506117e+03 1.0697888115418693e+04 2.9278520178974916e-13 4.6742596865698242e+03 5.1172874223899589e+03 1.4517233347133917e+04 -999 2.58384398e-01 9.645488489e-02 -1.19934020e-01
 81 3 234820 4.6236750543067210e+03 7.7468824480924577e+03 2.3383844035559872e-13 3.9552802833760916e+03 4.4446165031801784e+03 1.9761663037445687e+04 -999 2.79974193e-01 8.876784449e-02 -1.24017471e-01
 82 3 234820 4.8145233931300809e+03 8.0224877816423150e+03 1.9038025725832543e-13 3.8298023447626801e+03 4.6983459888057341e+03 4.8629007228442068e+04 -999 3.11727081e-01 8.307684875e-02 -1.33575820e-01
 83 3 234820 5.2553358703037138e+03 1.0891437076158583e+04 1.9000156060166817e-13 3.5091663141834802e+03 6.2867615595806374e+03 8.6135316290461924e+04 -999 3.45002713e-01 7.884147353e-02 -1.45834164e-01
 84 3 234820 5.2752063145136881e+03 9.5442563250960866e+03 1.9254093619076519e-13 3.2289771956633122e+03 8.9671341464887009e+03 1.1265613216961554e+05 -999 3.58981436e-01 7.737089742e-02 -1.51396803e-01
 85 3 234820 5.0941614849383641e+03 8.3175677939115358e+03 1.9445830386321209e-13 3.4164759262584189e+03 1.0900537693391980e+04 2.8003991881777468e+05 -999 3.71321687e-01 7.610179153e-02 -1.56202651e-01
 86 3 234820 3.1079577793059575e+03 4.2256126632567630e+03 3.1343534679733809e-13 2.6684549860428210e+03 3.1185914487022351e+03 3.6114478859575896e+05 -999 4.01212969e-01 7.340133951e-02 -1.67615673e-01
 87 3 234820 2.6523213932312838e+03 4.1067533677992706e+03 3.2046516919877157e-13 2.1991977810292265e+03 2.7896076917793685e+03 1.9765688017873291e+05 -999 4.30497733e-01 7.067408925e-02 -1.77858048e-01
 88 3 234820 2.4608676724860684e+03 6.0886637628620774e+03 2.8069524761659013e-13 2.1673042714738713e+03 3.0009410788523769e+03 8.3895126824531180e+04 -999 4.45967531e-01 6.936844117e-02 -1.82471198e-01
 89 3 234820 2.4150008877922905e+03 5.1289679337363150e+03 2.6984415353205158e-13 1.8168562464363351e+03 2.7015547047043619e+03 5.3387250681275626e+04 -999 4.50176131e-01 6.904487739e-02 -1.83600871e-01
 90 3 234820 2.3743630116967324e+03 4.0614515064934376e+03 2.5914538912582700e-13 1.7545752304008884e+03 2.4194287189420888e+03 4.2845379351904186e+04 -999 4.54411932e-01 6.872752067e-02 -1.84706027e-01
 91 3 234820 1.9444764212089708e+03 2.4693662876344983e+03 6.3185792448018293e-13 1.0932355800336991e+03 1.8965820345159918e+03 4.0461788187379716e+05 -999 5.22784617e-01 6.527188827e-02 -1.97764440e-01
 92 3 234820 1.8436403180741609e+03 2.1296660765161359e+03 6.5977363965190895e-13 6.8939675069886061e+02 1.7862420758126564e+03 1.0119873462154921e+05 -999 5.89363619e-01 6.369574164e-02 -2.05068156e-01
 93 3 234820 1.8549705416091399e+03 1.9319063819282414e+03 5.8621706941858178e-13 5.4387916538541640e+02 1.8096470523177204e+03 3.2561942568048740e+04 -999 6.33530938e-01 6.362483976e-02 -2.06810394e-01
 94 3 234820 1.8805345135413868e+03 1.8267438928978861e+03 5.2911595751500468e-13 4.6572363286460353e+02 1.8492151199986631e+03 2.6580612747742842e+04 -999 6.63288542e-01 6.397272582e-02 -2.06759057e-01
 95 3 234820 1.9299186675410981e+03 1.7737769844372383e+03 4.7670575159041312e-13 4.1942934905958833e+02 1.9173223942241857e+03 2.8256665500167022e+04 -999 6.89977651e-01 6.454728998e-02 -2.06038909e-01
 96 3 234820 1.3706874147146427e+03 1.5022456181194634e+03 5.0802810537982793e-13 3.2753081860839603e+02 1.3165028955024447e+03 2.2368938474585018e+04 -999 7.43226406e-01 6.611789595e-02 -2.02802161e-01
 97 3 234820 1.0871476480189588e+03 1.2900840810494119e+03 6.6088555281342148e-13 2.6191313982756685e+02 1.0120033857461202e+03 1.3042635264022887e+04 -999 7.99076400e-01 6.706160184e-02 -1.98230181e-01
 98 3 234820 9.8147982864096184e+02 1.2407690651219143e+03 7.4742048690212880e-13 2.3824480024059739e+02 9.0206305450309480e+02 7.3474505518412552e+03 -999 8.29584819e-01 6.695465286e-02 -1.95230460e-01
 99 3 234820 9.2274825694284777e+02 1.1892541425642689e+03 7.8753098728101316e-13 2.3671257892393436e+02 8.3965888708454190e+02 7.7458333344228931e+03 -999 8.52941398e-01 6.650298537e-02 -1.92879442e-01
 100 3 234820 8.9721349104603917e+02 1.1072421315259169e+03 7.6897231283603589e-13 2.3830717343811503e+02 8.0771598113340281e+02 8.1849674798551123e+03 -999 8.72870866e-01 6.582782880e-02 -1.90833882e-01
 101 3 234820 8.8343998339930909e+02 1.4180217293632759e+03 8.1708250932144381e-13 2.8819633211683390e+02 8.0117760625778874e+02 1.4822810669177488e+04 -999 8.86112704e-01 6.522430164e-02 -1.90215168e-01
 102 3 234820 8.7582887275908797e+02 1.4709182140529808e+03 8.4963229587954054e-13 3.5462793158663777e+02 7.9091834571664413e+02 1.3216283491954162e+04 -999 8.99609003e-01 6.451679224e-02 -1.89503885e-01
 103 3 234820 8.6961396335962866e+02 1.3897982470522632e+03 8.8029833273841432e-13 4.1618833671390621e+02 7.7811194221939513e+02 8.8820669068890093e+03 -999 9.13730570e-01 6.371574960e-02 -1.88667977e-01
 104 3 234820 8.8810135313529429e+02 1.3135108054404359e+03 9.3901547740886504e-13 4.7775782640699396e+02 7.8882705083039343e+02 8.9552333845384328e+03 -999 9.31074351e-01 6.268007221e-02 -1.87490785e-01
 105 3 234820 9.1909889634390493e+02 1.2854445191668472e+03 9.7342229466727970e-13 4.8534930957016377e+02 8.1571087265319409e+02 8.2910460340215741e+03 -999 9.41830333e-01 6.201366729e-02 -1.86708976e-01
 106 3 234820 8.9796116487671475e+02 1.2879074842983268e+03 7.9283304343747194e-13 4.4580198182019740e+02 7.8931446155939182e+02 7.9361117236496393e+03 -999 9.53533757e-01 6.165143356e-02 -1.86550708e-01
 107 3 234820 9.0113574883446984e+02 1.2883140966091466e+03 6.8490847059116508e-13 4.4134534471632577e+02 7.8888614019312251e+02 6.6857791820772345e+03 -999 9.65433670e-01 6.125398706e-02 -1.86396986e-01
 108 3 234820 9.1278196105160771e+02 1.2914161998533436e+03 6.2405121892238522e-13 4.4643608629119643e+02 7.9831612854386469e+02 7.4618183194622015e+03 -999 9.76025753e-01 6.087079959e-02 -1.86232080e-01
 109 3 234820 9.3128155258972117e+02 1.2862608083503203e+03 5.8122840306145262e-13 4.4720251623382268e+02 8.1454734727195466e+02 8.1667401833983722e+03 -999 9.86245366e-01 6.046752847e-02 -1.86021237e-01
 110 3 234820 9.4976943157502490e+02 1.2922508398578550e+03 5.5756764956844323e-13 4.5225756443598107e+02 8.3168682415261515e+02 8.1106697341149593e+03 -999 9.92914533e-01 6.014472661e-02 -1.85741001e-01
 111 3 234820 9.2064440104165612e+02 1.2401999347034787e+03 4.8186078037157284e-13 4.2045475903596434e+02 8.0549696597152251e+02 8.5485979716813781e+03 -999 9.95341894e-01 5.977769484e-02 -1.85221815e-01
 112 3 234820 8.9880706956145855e+02 1.1751913378133013e+03 4.0579969965693676e-13 3.8619107671513211e+02 7.8668832729460178e+02 9.5897038732200836e+03 -999 9.98475628e-01 5.937202887e-02 -1.84696847e-01
 113 3 234820 8.8066783919447175e+02 1.0971122687753909e+03 3.3974805676822439e-13 3.5044123214213249e+02 7.7240618222829175e+02 8.8537931274914063e+03 -999 1.00227947e+00 5.894662691e-02 -1.84194539e-01
 114 3 234820 8.7434325740122119e+02 9.9900557172949527e+02 2.8515973001383317e-13 3.0959536138595911e+02 7.6984318242774589e+02 1.0032784124066775e+04 -999 1.00745750e+00 5.840290463e-02 -1.83531815e-01
 115 3 234820 8.7639114268330957e+02 9.7439822455918022e+02 2.7285104649065772e-13 2.9883787438267979e+02 7.7322162485546210e+02 9.2593481808438592e+03 -999 1.00956213e+00 5.817814452e-02 -1.83241036e-01
 116 3 234820 8.8107658985004571e+02 9.4720701866975162e+02 2.8236700629867009e-13 2.8270230956644792e+02 7.7649845544342065e+02 9.2574624828158285e+03 -999 1.01296587e+00 5.796995544e-02 -1.82972185e-01
 117 3 234820 8.9091246201588331e+02 9.2034180954640908e+02 3.4038007789037651e-13 2.7154984806410971e+02 7.8496190349843903e+02 9.3446212583658817e+03 -999 1.01720930e+00 5.776762789e-02 -1.82819279e-01
 118 3 234820 9.0049378755911118e+02 8.9997844759497752e+02 3.7880413420908180e-13 2.7562203435252707e+02 7.9421528448722347e+02 1.0238631322319683e+04 -999 1.02164600e+00 5.752244064e-02 -1.82594075e-01
 119 3 234820 9.1893255165091523e+02 8.9495672661997014e+02 4.0868781678191397e-13 2.8597068892145313e+02 8.1252606476309211e+02 1.0609723419879590e+04 -999 1.02536379e+00 5.714516230e-02 -1.81965678e-01
 120 3 234820 9.4312424822948958e+02 9.0371072613311264e+02 4.7646529660607714e-13 2.9184105002296906e+02 8.3706809568780045e+02 9.2473663925593592e+03 -999 1.02723972e+00 5.673283754e-02 -1.81059333e-01
 121 3 234820 9.2934446427148907e+02 8.9992022803564464e+02 4.4869046318576306e-13 3.0712069644908166e+02 8.2312812459631493e+02 9.0226069358995283e+03 -999 1.02948688e+00 5.622956009e-02 -1.79931098e-01
 122 3 234820 9.5797449960199742e+02 8.8680553232709519e+02 6.0310600209824243e-13 3.2113853995940576e+02 8.5051064799562243e+02 9.3005252576656076e+03 -999 1.03284101e+00 5.555351188e-02 -1.78377259e-01
 123 3 234820 1.0007197896733287e+03 8.6199265324449573e+02 6.9083517536136297e-13 3.2844391381875977e+02 8.9441421767638269e+02 9.8245084124084133e+03 -999 1.03832342e+00 5.497354977e-02 -1.77220534e-01
 124 3 234820 9.9799796664822986e+02 8.4695731384672672e+02 6.6989953473404529e-13 3.2986864593680099e+02 8.9140618578456588e+02 8.8856978149823444e+03 -999 1.04245117e+00 5.476694662e-02 -1.77004463e-01
 125 3 234820 1.0087080435196420e+03 8.4012870448123624e+02 7.3763940545291539e-13 3.3483479299597684e+02 9.0587651632909706e+02 9.0161322843333819e+03 -999 1.04632546e+00 5.460441136e-02 -1.76902048e-01
 126 3 234820 9.5931994837020170e+02 8.2917451104246697e+02 6.5033555491486778e-13 3.3553971025671308e+02 8.5460853056616895e+02 9.1454540301046873e+03 -999 1.04914371e+00 5.454776110e-02 -1.76981540e-01
 127 3 234820 9.3652671138507230e+02 8.2191158030142719e+02 6.4513114480561095e-13 3.3698794144377797e+02 8.3007811524514238e+02 1.1022933193863786e+04 -999 1.05233080e+00 5.449366172e-02 -1.77095446e-01
 128 3 234820 9.2946797110267266e+02 8.1236994585130208e+02 6.9014580835618041e-13 3.3769885279901632e+02 8.2446262380871315e+02 9.4144061314687387e+03 -999 1.05559696e+00 5.444357128e-02 -1.77234234e-01
 129 3 234820 9.4451478226886547e+02 8.1170592789048078e+02 7.6024343052583423e-13 3.3822825356038686e+02 8.4203185820978456e+02 1.0992060943032702e+04 -999 1.05943296e+00 5.437873754e-02 -1.77398337e-01
 130 3 234820 9.4871779637498844e+02 8.0308832032791054e+02 7.8183835363510708e-13 3.3420419553710980e+02 8.4730953879911340e+02 8.4731914224792235e+03 -999 1.06120056e+00 5.435670779e-02 -1.77502032e-01
 131 3 234820 8.9195718399095665e+02 7.8664019145224836e+02 8.4498982255576602e-13 3.2624590713687644e+02 7.9041056663422194e+02 1.1601737051140328e+04 -999 1.06404300e+00 5.421563590e-02 -1.77409461e-01
 132 3 234820 8.7828867505854646e+02 7.7038288269602242e+02 1.0526405788634993e-12 3.0628407313032602e+02 7.7451387732618218e+02 9.6000866412591167e+03 -999 1.06750923e+00 5.414668507e-02 -1.77485813e-01
 133 3 234820 8.8050829452139169e+02 7.6151870460244481e+02 1.2234130801020354e-12 2.9843353424418672e+02 7.7741001232935298e+02 1.0191206236309519e+04 -999 1.07044193e+00 5.405889815e-02 -1.77493571e-01
 134 3 234820 8.8968422368079985e+02 7.6578624877124366e+02 1.3520998075434376e-12 2.9246787508319801e+02 7.8756552990218734e+02 8.7750591016771778e+03 -999 1.07280192e+00 5.398667259e-02 -1.77499178e-01
 135 3 234820 8.9908536735287203e+02 7.6728375927955381e+02 1.4693356571636868e-12 2.8926189202744575e+02 7.9713244807873923e+02 8.7067558810162245e+03 -999 1.07433772e+00 5.392520997e-02 -1.77478748e-01
 136 3 234820 8.5436963883689941e+02 7.4941659531805919e+02 1.2844012550537140e-12 2.8022860895592851e+02 7.5226074932091547e+02 9.1870658648117587e+03 -999 1.07604590e+00 5.386156248e-02 -1.77455468e-01
 137 3 234820 8.2928509457798759e+02 7.3719077612826788e+02 1.1586493993121910e-12 2.6967837859499554e+02 7.2646244005868618e+02 1.1116289496244495e+04 -999 1.07838892e+00 5.382918059e-02 -1.77541830e-01
 138 3 234820 8.2599528502600481e+02 7.2380988651800078e+02 1.1259540685597701e-12 2.6373956982317776e+02 7.2262472055958744e+02 9.9421138905078460e+03 -999 1.08112234e+00 5.383464682e-02 -1.77739730e-01
 139 3 234820 8.2580361365407646e+02 7.2118398345645232e+02 1.1179830016849073e-12 2.6088019491104319e+02 7.2336008828652268e+02 1.0769884874682111e+04 -999 1.08301895e+00 5.385923848e-02 -1.77931735e-01
 140 3 234820 8.3690488045189943e+02 7.3420197390136491e+02 1.1280453865322160e-12 2.5942550685463698e+02 7.3513580603694584e+02 1.0560193827311441e+04 -999 1.08496789e+00 5.386759779e-02 -1.78085876e-01
 141 3 234820 7.9602586043757117e+02 7.1696194911573116e+02 1.0197361346016492e-12 2.6125817895051625e+02 6.9534778601463915e+02 1.0810158436896936e+04 -999 1.08631169e+00 5.384698502e-02 -1.78131551e-01