TITLE = "005.01 ALPHA 3.60 GRIDLEVEL 5"

VARIABLES = "ITERATION"  "GRID_LEVEL"  "GRID_SIZE"  "CONTINUITY"  "MOMENTUMX"  "MOMENTUMY"  "MOMENTUMZ"  "ENERGY"  "TURB1"  "TURB2"  "CL_TOT"  "CD_TOT"  "CM_TOT"

DATASETAUXDATA ParticipantID   = "005"
DATASETAUXDATA SubmissionDate  = "10-31-2024"
DATASETAUXDATA Name            = "Jeffrey A. Housman"
DATASETAUXDATA Email           = "jeffrey.a.housman@nasa.gov"
DATASETAUXDATA Institution     = "NASA Ames Research Center"
DATASETAUXDATA SolverName      = "LAVA Curvilinear"
DATASETAUXDATA BasicAlgorithm  = "RANS"
DATASETAUXDATA TurbulenceModel = "SA-neg"
DATASETAUXDATA GridId          = "Multiblock"
DATASETAUXDATA Discretization  = "Finite difference"
DATASETAUXDATA Order           = "2"
DATASETAUXDATA DistanceCalc    = "Exact"
DATASETAUXDATA Notes           = " "

ZONE T = "005.01 - Alpha 3.60 - Grid Level 5"
AUXDATA Tstatic         = "271.0"
AUXDATA Deltat          = "-999"
AUXDATA GridFileName    = "ONERA-OAT15A_230mmChord_780mmSpan_upZ_2024_06_25-Structured_23mm_Level-5.x"
AUXDATA Misc            = " "
 0 5 752103 5.0295006074056338e+05 1.6014248289551581e+06 7.6805830982506665e-14 5.0537083651410096e+05 5.3720063614332094e+05 2.7133461086031934e+06 -999 1.81748045e-02 9.100802137e-01 -1.20885417e-02
 1 5 752103 7.4462394492126640e+05 1.1952669311090854e+06 6.5433885812561171e-14 3.8052941405536537e+05 7.2747215019777429e+05 1.7643992535022902e+06 -999 5.66627037e-02 8.324996151e-01 -2.71764957e-02
 2 5 752103 9.0611977665764024e+05 1.0188084962286339e+06 5.7075223850610744e-14 4.1644492760462151e+05 8.7141797462373844e+05 1.1524225003736333e+06 -999 1.03362007e-01 7.877365556e-01 -4.51923938e-02
 3 5 752103 1.0528551661243951e+06 9.0918337585255620e+05 5.0710468316846541e-14 4.9143915659048781e+05 1.0108077230034970e+06 7.5689581110872945e+05 -999 1.45873540e-01 7.586000257e-01 -6.20573303e-02
 4 5 752103 1.1798382323968394e+06 8.3198651938434190e+05 4.5757762852471194e-14 5.8271986109638726e+05 1.1437002365409895e+06 4.8997711228288338e+05 -999 1.83411439e-01 7.390479571e-01 -7.54606838e-02
 5 5 752103 1.3109660308642725e+06 8.3225137700127554e+05 4.1874765801689692e-14 6.7938937409086863e+05 1.3006791892893473e+06 3.1694641258271754e+05 -999 2.12559013e-01 7.239253429e-01 -8.57456163e-02
 6 5 752103 1.1983174303848254e+06 8.5745085609604022e+05 3.8947542603807681e-14 7.1305072941354313e+05 1.1906983672530628e+06 1.6936429890911019e+05 -999 2.32730886e-01 7.033006888e-01 -9.35330484e-02
 7 5 752103 1.2293359560173547e+06 8.6369212092926539e+05 3.6336912049084182e-14 7.4336639912960085e+05 1.2185966504539230e+06 1.2061657269835219e+05 -999 2.49050009e-01 6.806173650e-01 -1.00338122e-01
 8 5 752103 1.2916069609364138e+06 8.4411121593319275e+05 3.4411005072340499e-14 7.6325993763921259e+05 1.3004180529979293e+06 9.9787984376238717e+04 -999 2.61569001e-01 6.581583878e-01 -1.05372412e-01
 9 5 752103 1.5602362896769822e+06 9.1892282016697631e+05 3.2796377405206184e-14 8.4015240646862995e+05 1.6305670250066158e+06 8.7772487068302056e+04 -999 2.73438872e-01 6.331608823e-01 -1.09775131e-01
 10 5 752103 1.4586731386953399e+06 7.6759010205449304e+05 3.1874941999923696e-14 8.0925497693907632e+05 1.5028701363359736e+06 7.8802925551325185e+04 -999 2.79823080e-01 6.182786321e-01 -1.12079740e-01
 11 5 752103 1.3821156974579380e+06 7.9050114563001948e+05 3.0819703297859992e-14 8.0067653835083859e+05 1.4140664223857592e+06 7.1381235774359709e+04 -999 2.86516750e-01 6.017273075e-01 -1.14544068e-01
 12 5 752103 1.2825567342984013e+06 7.6901814919887995e+05 2.9798713833808850e-14 7.7219880083386367e+05 1.2987595532096780e+06 6.5634617487255338e+04 -999 2.92322553e-01 5.861880004e-01 -1.16573667e-01
 13 5 752103 1.4302265200705403e+06 8.1558364676197292e+05 2.8837589122522990e-14 8.0825933629775676e+05 1.4786363217134408e+06 6.0992872518129465e+04 -999 2.97886574e-01 5.698477027e-01 -1.18508291e-01
 14 5 752103 1.3479110435044456e+06 7.0038996417649405e+05 2.8270940951278202e-14 7.7273019793199340e+05 1.3759354414448321e+06 5.6929735922118372e+04 -999 3.00997623e-01 5.596633903e-01 -1.19656241e-01
 15 5 752103 1.5448542713068340e+06 8.3801769975317852e+05 2.7836218380094449e-14 8.0763207327980874e+05 1.6387949985596694e+06 5.3522101727421636e+04 -999 3.03938667e-01 5.493473401e-01 -1.20840891e-01
 16 5 752103 1.2986281650153550e+06 7.3116190641423862e+05 2.7285174297211592e-14 7.3907362413965829e+05 1.3621966865077775e+06 4.9491842157636740e+04 -999 3.06143729e-01 5.404005808e-01 -1.21763528e-01
 17 5 752103 1.2011850775515884e+06 6.8452440504872566e+05 2.6716151862054251e-14 7.1384093597521377e+05 1.2204627044212322e+06 4.6075983300632201e+04 -999 3.08362453e-01 5.303827781e-01 -1.22650554e-01
 18 5 752103 1.1778593757699558e+06 6.4393661097110843e+05 2.6315006753461408e-14 6.9621504517414363e+05 1.1891809788834751e+06 4.3210403348605156e+04 -999 3.10089682e-01 5.216485971e-01 -1.23260056e-01
 19 5 752103 1.3058671743211893e+06 6.8580470439463877e+05 2.5999683590708124e-14 7.0047217994985916e+05 1.3670913541363496e+06 4.0721734291694702e+04 -999 3.11527327e-01 5.137725415e-01 -1.23688217e-01
 20 5 752103 1.2956898074174656e+06 6.3415837214126461e+05 2.5780933146708739e-14 7.0411197357075813e+05 1.3436201418960325e+06 3.8533087071240916e+04 -999 3.12586939e-01 5.074656128e-01 -1.23965823e-01
 21 5 752103 1.1775842932955441e+06 6.5496358067693375e+05 2.5409326768586641e-14 6.6433591480860522e+05 1.2276958438160934e+06 3.5984050730127572e+04 -999 3.13441412e-01 5.013592726e-01 -1.24172459e-01
 22 5 752103 1.0482115852359306e+06 5.8022940780206886e+05 2.4966934069158236e-14 6.1971136130829074e+05 1.0711993336552121e+06 3.3737933423459617e+04 -999 3.14385487e-01 4.940388078e-01 -1.24394664e-01
 23 5 752103 1.0520672622751556e+06 5.9568704655832564e+05 2.4578546796819058e-14 6.0722821774241573e+05 1.0753322837785068e+06 3.1777610244614920e+04 -999 3.15211010e-01 4.870458471e-01 -1.24590106e-01
 24 5 752103 1.1972094473572329e+06 6.3579958558796148e+05 2.4299000635345353e-14 6.2633288173945295e+05 1.2584859359877128e+06 3.0080327521116138e+04 -999 3.15960401e-01 4.802153788e-01 -1.24775968e-01
 25 5 752103 1.1337177928171749e+06 5.3939075397599337e+05 2.4073297766144859e-14 6.0175119469742931e+05 1.1847607606312849e+06 2.8567100229215481e+04 -999 3.16399671e-01 4.758797918e-01 -1.24891534e-01
 26 5 752103 1.0180425377707125e+06 5.3610249143768556e+05 2.3685332743167061e-14 5.6990097667156777e+05 1.0621462132720870e+06 2.6814855228696437e+04 -999 3.16817744e-01 4.709710885e-01 -1.24999222e-01
 27 5 752103 9.0760274761332572e+05 5.1131019010354439e+05 2.3244055352121828e-14 5.3245565572878637e+05 9.3069723811281123e+05 2.5271337468975202e+04 -999 3.17283280e-01 4.653399752e-01 -1.25122436e-01
 28 5 752103 9.1207993909430434e+05 5.1024957864350622e+05 2.2878482229933391e-14 5.1838565193252935e+05 9.3267657717188378e+05 2.3897555677533928e+04 -999 3.17734717e-01 4.597820563e-01 -1.25243331e-01
 29 5 752103 1.0407789677977852e+06 5.5283096129933198e+05 2.2637180829428981e-14 5.3138438879752555e+05 1.0953357295536285e+06 2.2668119179864294e+04 -999 3.18162706e-01 4.544213551e-01 -1.25355622e-01
 30 5 752103 1.0026919891010084e+06 4.7361159058086504e+05 2.2526259100552033e-14 5.1760134977790213e+05 1.0484124661298027e+06 2.1579779214338178e+04 -999 3.18435249e-01 4.509272253e-01 -1.25425045e-01
 31 5 752103 8.8924810962608422e+05 4.7735731638186506e+05 2.2289694676834664e-14 4.8466729944773571e+05 9.3417546354481636e+05 2.0308023866950800e+04 -999 3.18703331e-01 4.469523123e-01 -1.25486930e-01
 32 5 752103 7.7551522436052398e+05 4.3692230706281547e+05 2.2051572104829898e-14 4.4795447561159963e+05 7.9886479511618195e+05 1.9177309060918848e+04 -999 3.19009932e-01 4.424144059e-01 -1.25558104e-01
 33 5 752103 7.6883006594101363e+05 4.2795444526087801e+05 2.1883676286260102e-14 4.3156317851137853e+05 7.8236911587963591e+05 1.8183949171919281e+04 -999 3.19324289e-01 4.377523322e-01 -1.25631571e-01
 34 5 752103 8.4014095149289467e+05 4.4530806907976035e+05 2.1848391971627667e-14 4.3059402606323321e+05 8.7959608473044983e+05 1.7298300800138735e+04 -999 3.19581449e-01 4.339194693e-01 -1.25692291e-01
 35 5 752103 9.6273332278792944e+05 5.4738744304693420e+05 2.1866775918645295e-14 4.4913996294129523e+05 1.0377030447641310e+06 1.6489197556978961e+04 -999 3.19823572e-01 4.302942353e-01 -1.25750165e-01
 36 5 752103 7.9965613249264716e+05 4.6606001458912471e+05 2.1681527981309239e-14 4.0766468270147819e+05 8.6407349695751816e+05 1.5548381857459133e+04 -999 3.20005848e-01 4.271794733e-01 -1.25790099e-01
 37 5 752103 6.6114621535273024e+05 3.8632490437252057e+05 2.1450989417862671e-14 3.7137016089277284e+05 6.9063402818576596e+05 1.4694713451915730e+04 -999 3.20229236e-01 4.234203051e-01 -1.25840063e-01
 38 5 752103 6.3257143809327367e+05 3.6418850820706191e+05 2.1245807893521415e-14 3.5173830991403334e+05 6.4252501163510152e+05 1.3940946754777429e+04 -999 3.20460167e-01 4.195978728e-01 -1.25892911e-01
 39 5 752103 6.9750952066599589e+05 3.7694506175954337e+05 2.1126323694833308e-14 3.4963846853054292e+05 7.2574744828056509e+05 1.3276878096260902e+04 -999 3.20666646e-01 4.162266030e-01 -1.25941102e-01
 40 5 752103 7.7052356299063854e+05 4.0679887394328578e+05 2.1071696687816141e-14 3.5725858607409586e+05 8.1716768441724381e+05 1.2676183884603983e+04 -999 3.20850013e-01 4.132611387e-01 -1.25984587e-01
 41 5 752103 6.5041378464552353e+05 3.6705587803432380e+05 2.0834046570529979e-14 3.2647938371467328e+05 6.9869089598606247e+05 1.1898140968200463e+04 -999 3.21003078e-01 4.105026800e-01 -1.26017987e-01
 42 5 752103 5.3480354714689928e+05 3.1597074680125277e+05 2.0542604403082428e-14 2.9583348235349677e+05 5.6200684269090241e+05 1.1189503935789598e+04 -999 3.21183921e-01 4.073176877e-01 -1.26058318e-01
 43 5 752103 4.9815794139625889e+05 2.8807724091098947e+05 2.0247003726605604e-14 2.7504731456172041e+05 5.0410986312530615e+05 1.0558681700172052e+04 -999 3.21389080e-01 4.037889238e-01 -1.26104988e-01
 44 5 752103 5.4216386756146362e+05 2.9323662176822498e+05 2.0043795556326433e-14 2.7002331273151404e+05 5.5959062998056225e+05 1.0011254951300623e+04 -999 3.21573447e-01 4.006894736e-01 -1.26147688e-01
 45 5 752103 5.9308808317504032e+05 3.2437397502724023e+05 1.9919439662589182e-14 2.7125006111210462e+05 6.3101111744959059e+05 9.5263156924875329e+03 -999 3.21725660e-01 3.981722813e-01 -1.26183490e-01
 46 5 752103 5.0278013037000503e+05 2.7755536612532812e+05 1.9674932708979107e-14 2.4844173050916585e+05 5.3999505646648561e+05 8.8974606478917867e+03 -999 3.21865180e-01 3.956493251e-01 -1.26213587e-01
 47 5 752103 4.1327991995003843e+05 2.4589921442101139e+05 1.9389734736112450e-14 2.2537834947953044e+05 4.3664703823731269e+05 8.3253041193718127e+03 -999 3.22027463e-01 3.927875538e-01 -1.26249288e-01
 48 5 752103 3.7588329501779081e+05 2.2418470266995640e+05 1.9114574592466968e-14 2.0757757215484325e+05 3.8213086547355197e+05 7.8192471321516186e+03 -999 3.22209724e-01 3.896540759e-01 -1.26290160e-01
 49 5 752103 3.9944922006127477e+05 2.2280935531912826e+05 1.8941371959622399e-14 2.0054884038380001e+05 4.0909924643645255e+05 7.3802955729186970e+03 -999 3.22380968e-01 3.867794327e-01 -1.26329352e-01
 50 5 752103 4.3565764828732685e+05 2.3752385663407002e+05 1.8865425772944964e-14 1.9949225558159294e+05 4.5731419102763146e+05 6.9903886557173855e+03 -999 3.22531270e-01 3.842996933e-01 -1.26364541e-01
 51 5 752103 3.7338646031421522e+05 2.0951202049951750e+05 1.8659730249535650e-14 1.8282632239132479e+05 3.9864200067354843e+05 6.4796827529340499e+03 -999 3.22660500e-01 3.820196563e-01 -1.26392705e-01
 52 5 752103 3.0449290903521748e+05 1.8411836478981320e+05 1.8390150626423422e-14 1.6438255750977393e+05 3.2349598918681708e+05 6.0225318112311306e+03 -999 3.22818880e-01 3.792828324e-01 -1.26428015e-01
 53 5 752103 2.6901828266923683e+05 1.6643043869874941e+05 1.8108835184808372e-14 1.4878967153553310e+05 2.7610378725088149e+05 5.6218061797893324e+03 -999 3.22998524e-01 3.762470137e-01 -1.26469157e-01
 54 5 752103 2.7646740037317725e+05 1.6265476290222286e+05 1.7913774917918898e-14 1.4050127075611264e+05 2.8277722710217634e+05 5.2687967532107559e+03 -999 3.23171346e-01 3.733857742e-01 -1.26510087e-01
 55 5 752103 2.9483383467789885e+05 1.6950265079644116e+05 1.7812954842642858e-14 1.3671437735579940e+05 3.0819539314522495e+05 4.9358876625065368e+03 -999 3.23327313e-01 3.708392227e-01 -1.26548589e-01
 56 5 752103 2.5413507106680822e+05 1.5159303052703937e+05 1.7625456520724525e-14 1.2570988585603925e+05 2.7044719717865332e+05 4.5311155848557437e+03 -999 3.23455123e-01 3.686126586e-01 -1.26579033e-01
 57 5 752103 2.0762235469592203e+05 1.3468099139081998e+05 1.7384242121780220e-14 1.1307025382872079e+05 2.2169367329916533e+05 4.1711037929028071e+03 -999 3.23612077e-01 3.659287406e-01 -1.26617335e-01
 58 5 752103 1.7889385103476507e+05 1.2139943534308037e+05 1.7128452411801387e-14 1.0127977604452758e+05 1.8630899816896149e+05 3.8495101803504826e+03 -999 3.23794990e-01 3.628621003e-01 -1.26663456e-01
 59 5 752103 1.7626036670033116e+05 1.1600424230837279e+05 1.6944321748165657e-14 9.3751887944093178e+04 1.8159299304292284e+05 3.5575085617408804e+03 -999 3.23974250e-01 3.599096761e-01 -1.26710855e-01
 60 5 752103 1.7969936581988522e+05 1.1494465213182289e+05 1.6852615553868365e-14 8.9058151201548200e+04 1.8696668462069618e+05 3.3264625087973541e+03 -999 3.24135291e-01 3.572849995e-01 -1.26756170e-01
 61 5 752103 1.5581704197190647e+05 1.0581307776818820e+05 1.6670833283425112e-14 8.2377021428423599e+04 1.6483014109711279e+05 3.0063994292300963e+03 -999 3.24266541e-01 3.550183274e-01 -1.26791875e-01
 62 5 752103 1.2792243423246533e+05 9.6645998837151434e+04 1.6447361384314726e-14 7.4608039541771825e+04 1.3626490940599758e+05 2.7317597695922286e+03 -999 3.24426827e-01 3.522942085e-01 -1.26836338e-01
 63 5 752103 1.0750544761774938e+05 8.8398003100396134e+04 1.6202805483542698e-14 6.6758115842201703e+04 1.1267142996886896e+05 2.4927913309811624e+03 -999 3.24618219e-01 3.490922108e-01 -1.26891140e-01
 64 5 752103 1.0067525345086938e+05 8.3258899694062828e+04 1.6023585634302486e-14 6.0996297015796990e+04 1.0420365690000795e+05 2.2914503069156549e+03 -999 3.24807816e-01 3.459580309e-01 -1.26948478e-01
 65 5 752103 9.7479407398387251e+04 7.9858041659571594e+04 1.5921892596120571e-14 5.6832146824279625e+04 1.0090911566209098e+05 2.1215566812710358e+03 -999 3.24980037e-01 3.431194083e-01 -1.27004747e-01
 66 5 752103 8.5214144922460298e+04 7.5198390670619527e+04 1.5712736545413027e-14 5.2463976064948169e+04 8.9303209221259807e+04 1.8933391937240654e+03 -999 3.25113617e-01 3.407244417e-01 -1.27044308e-01
 67 5 752103 7.0544515021028274e+04 7.0144807207366990e+04 1.5453503924597302e-14 4.7297879669572911e+04 7.4271905622661463e+04 1.7045428691899151e+03 -999 3.25277482e-01 3.377990577e-01 -1.27093277e-01
 68 5 752103 5.8283855875701629e+04 6.5024743017884612e+04 1.5131245699267587e-14 4.1702132612708316e+04 6.0564918000818172e+04 1.5473424981174337e+03 -999 3.25474523e-01 3.342801894e-01 -1.27153657e-01
 69 5 752103 5.1902729164452321e+04 6.0997580553813634e+04 1.4850376059103768e-14 3.7096262523885242e+04 5.3254213984787566e+04 1.4196641359198193e+03 -999 3.25667916e-01 3.307893010e-01 -1.27216471e-01
 70 5 752103 4.7634623971641660e+04 5.7813060372536107e+04 1.4640232989605944e-14 3.3516228150915158e+04 4.8573223376915179e+04 1.3151383031294658e+03 -999 3.25841030e-01 3.275872611e-01 -1.27278161e-01
 71 5 752103 4.1789895241261060e+04 5.4773710365444938e+04 1.4416141887202622e-14 3.0512820929445093e+04 4.2829819547510167e+04 1.1812117857032308e+03 -999 3.25961044e-01 3.247035453e-01 -1.27307968e-01
 72 5 752103 3.4960323798355203e+04 5.1327133529882558e+04 1.4144311963922409e-14 2.7060421171612510e+04 3.5776747262547586e+04 1.0688493791594090e+03 -999 3.26102633e-01 3.210976786e-01 -1.27340229e-01
 73 5 752103 2.8935501344024291e+04 4.7651858092012561e+04 1.3797814098587217e-14 2.3407908945459185e+04 2.9300777128556154e+04 9.9551834451095135e+02 -999 3.26262262e-01 3.166618905e-01 -1.27372895e-01
 74 5 752103 2.5203821985059862e+04 4.4558587528562202e+04 1.3477950087179850e-14 2.0496151217207596e+04 2.5395253979727659e+04 9.4687171138500617e+02 -999 3.26402840e-01 3.121939751e-01 -1.27398800e-01
 75 5 752103 2.2732337265050188e+04 4.2068787619897994e+04 1.3201927334891389e-14 1.8366212147488321e+04 2.2957776674709621e+04 9.1576092453365175e+02 -999 3.26514866e-01 3.079645033e-01 -1.27418590e-01
 76 5 752103 2.0086111290531677e+04 3.9658168346478662e+04 1.2934619268321957e-14 1.6612682162979923e+04 2.0581932840451518e+04 8.7960931411032277e+02 -999 3.26541502e-01 3.033918013e-01 -1.27352417e-01
 77 5 752103 1.7494511533218003e+04 3.6952118706051406e+04 1.2603092090171326e-14 1.4925657122872901e+04 1.8325780777478969e+04 9.2693314434213028e+02 -999 3.26576316e-01 2.973549087e-01 -1.27251843e-01
 78 5 752103 1.5961680718416774e+04 3.4264688102686894e+04 1.2238301120662809e-14 1.3762701562497326e+04 1.7214924043007821e+04 1.0999115143971874e+03 -999 3.26639410e-01 2.897277292e-01 -1.27119995e-01
 79 5 752103 1.5719318539887872e+04 3.2222882954299999e+04 1.1904902079180141e-14 1.3359106809712284e+04 1.7380951559247093e+04 1.4398433462815899e+03 -999 3.26752928e-01 2.818685174e-01 -1.27003541e-01
 80 5 752103 1.5986803659524832e+04 3.0732417499548472e+04 1.1637400574334463e-14 1.3290825793341555e+04 1.7986584116049413e+04 2.0072820784651854e+03 -999 3.26935507e-01 2.740180854e-01 -1.26933630e-01
 81 5 752103 1.5351491147717814e+04 2.8221864207020684e+04 1.1302723186006913e-14 1.2201405718258189e+04 1.7631596162311012e+04 3.3283725049255891e+03 -999 3.27344508e-01 2.628848570e-01 -1.26925525e-01
 82 5 752103 1.5451277859095509e+04 2.6047979788537014e+04 1.1082590735618891e-14 1.1582971011321286e+04 1.7840769039902687e+04 1.2078163404011679e+04 -999 3.28093747e-01 2.469122388e-01 -1.27150566e-01
 83 5 752103 1.6077561483531432e+04 2.5893974973167828e+04 1.1010605186269644e-14 1.1660222003591954e+04 1.8371639789762892e+04 4.8706355920978094e+04 -999 3.28979631e-01 2.285583758e-01 -1.27863060e-01
 84 5 752103 1.6662839231476049e+04 2.7756951596232549e+04 1.0970958817521510e-14 1.1988191016707144e+04 1.8794856370668218e+04 1.5972157413895166e+05 -999 3.29504412e-01 2.096557526e-01 -1.29142416e-01
 85 5 752103 1.7652896036066057e+04 4.3569476089618700e+04 1.0697377208379139e-14 1.2785782021043293e+04 2.2480245496443611e+04 3.0348623597506102e+05 -999 3.29134222e-01 1.934556316e-01 -1.30612696e-01
 86 5 752103 1.4969840930349530e+04 2.1460797391230823e+04 1.0031936990644158e-14 1.1541134934355638e+04 1.6339304142855060e+04 8.4826380145453324e+05 -999 3.26570125e-01 1.644410083e-01 -1.33540271e-01
 87 5 752103 1.3219092442284345e+04 2.4075597896849249e+04 9.0698430034039531e-15 1.1771234681158554e+04 1.4807712535067192e+04 4.0816840801743959e+05 -999 3.21248286e-01 1.412568362e-01 -1.35314590e-01
 88 5 752103 1.2838794950980619e+04 5.0471793508568968e+04 8.3658380587102454e-15 9.8097508242250824e+03 2.1842449174897094e+04 5.2318857057045068e+05 -999 3.20141731e-01 1.379029250e-01 -1.35297638e-01
 89 5 752103 1.2733676188444408e+04 5.0210624146307717e+04 8.2426663365399213e-15 9.5405953017280790e+03 2.1024165374679109e+04 2.7002633042644273e+05 -999 3.19896447e-01 1.371337952e-01 -1.35274298e-01
 90 5 752103 1.2655608566548093e+04 5.4310353952221551e+04 8.1928476703143936e-15 9.4548265240579003e+03 2.1528398962085019e+04 2.2243732505594738e+05 -999 3.19699696e-01 1.365110010e-01 -1.35253468e-01
 91 5 752103 1.2438736376181098e+04 2.2634004665988716e+04 5.1112431482311666e-14 8.9410973699888837e+03 1.3049171992993979e+04 6.6417194099899003e+04 -999 3.19153350e-01 1.342293683e-01 -1.35344094e-01
 92 5 752103 1.2343046363619913e+04 2.2021342107825021e+04 6.6443972067076133e-14 8.2334469779276824e+03 1.2532873614499251e+04 5.8806062917916533e+04 -999 3.18574973e-01 1.319439695e-01 -1.35416497e-01
 93 5 752103 1.2397548486282521e+04 2.1965834200860791e+04 6.3739835475872957e-14 8.1627770482802553e+03 1.2439163627566655e+04 5.8030819590728948e+04 -999 3.17980605e-01 1.297508598e-01 -1.35474673e-01
 94 5 752103 1.2544083411711246e+04 2.2173453683036078e+04 5.5240422938216773e-14 8.2350238501016138e+03 1.2500108018020812e+04 5.8302284123772770e+04 -999 3.17366400e-01 1.276750965e-01 -1.35516516e-01
 95 5 752103 1.2661741023776127e+04 2.6792733513904066e+04 4.8140163318491432e-14 8.3683427157235346e+03 1.2623516873227174e+04 5.8530994504260751e+04 -999 3.16727330e-01 1.257229780e-01 -1.35538724e-01
 96 5 752103 1.2242013260192181e+04 2.1558280839361705e+04 2.4830181114862470e-14 8.1624081260339053e+03 1.2109880465979570e+04 5.9125222641761677e+04 -999 3.15306952e-01 1.221509897e-01 -1.35478264e-01
 97 5 752103 1.1491449622672530e+04 2.0862680229144113e+04 1.4600087405919100e-14 7.6945637795324792e+03 1.1386586032856972e+04 5.7241107141839813e+04 -999 3.13792643e-01 1.188844319e-01 -1.35303150e-01
 98 5 752103 1.0855667844822796e+04 2.0161120730501774e+04 1.0255200306059501e-14 7.5206388525320208e+03 1.0771018095240153e+04 5.5129156345011586e+04 -999 3.12232488e-01 1.158799747e-01 -1.35005334e-01
 99 5 752103 1.0474475524490035e+04 1.9557049543699512e+04 8.2752450574544119e-15 7.4507029277093297e+03 1.0380151243875025e+04 5.1904262615623375e+04 -999 3.11059269e-01 1.137616267e-01 -1.34689277e-01
 100 5 752103 1.0311981083516728e+04 1.8916351060232100e+04 7.4007945173136423e-15 7.3452839558020150e+03 1.0154656089875145e+04 4.9590530254493380e+04 -999 3.09809933e-01 1.115201775e-01 -1.34269882e-01
 101 5 752103 9.8949184347358951e+03 1.7915672771147372e+04 6.8106605138927509e-15 7.0810071420051036e+03 9.6932486592176974e+03 4.5550400591153528e+04 -999 3.08750447e-01 1.094751863e-01 -1.33786863e-01
 102 5 752103 9.6355096014528390e+03 1.6623208270893778e+04 7.0378269782215572e-15 6.8008813726494536e+03 9.3338832525267917e+03 4.2959153683326367e+04 -999 3.07469938e-01 1.066366271e-01 -1.33029147e-01
 103 5 752103 9.4783868983861230e+03 1.5769590146475311e+04 6.7681105441040427e-15 6.5432634424018570e+03 9.1153702407962373e+03 3.6627526120536771e+04 -999 3.06914143e-01 1.047920697e-01 -1.32464681e-01
 104 5 752103 9.3697701816063345e+03 1.5119198663646637e+04 6.3531776392096648e-15 6.3846400606458101e+03 8.9706833209249435e+03 3.2925101611029313e+04 -999 3.06725009e-01 1.034687151e-01 -1.32040646e-01
 105 5 752103 9.3054361050097814e+03 1.4502964866635528e+04 6.3413784625944980e-15 6.2964167912417242e+03 8.8724155087059389e+03 2.9943483651262184e+04 -999 3.06736402e-01 1.021342229e-01 -1.31611553e-01
 106 5 752103 8.7971602975199894e+03 1.3375127254126997e+04 7.2199417424758281e-15 6.2962261255616913e+03 8.3929826729187862e+03 2.7829753680816855e+04 -999 3.07411488e-01 9.971318979e-02 -1.30887118e-01
 107 5 752103 8.6126735194999728e+03 1.2570713558258485e+04 7.6369344338412706e-15 6.6053365260954615e+03 8.1947962747798665e+03 2.3512824182364082e+04 -999 3.09053816e-01 9.764024669e-02 -1.30407833e-01
 108 5 752103 8.6106524737543132e+03 1.2132234364845752e+04 7.7246646774578172e-15 7.1234223209698721e+03 8.1629387171576082e+03 2.0872224532189044e+04 -999 3.11634073e-01 9.584517051e-02 -1.30234492e-01
 109 5 752103 8.9270156884489334e+03 1.2147863579368282e+04 7.7007465384610816e-15 7.6669787139354503e+03 8.4129233007940838e+03 1.9729055061429310e+04 -999 3.15052721e-01 9.428681483e-02 -1.30399302e-01
 110 5 752103 9.2969742111015512e+03 1.2377950843556902e+04 7.1708882859846842e-15 8.0617578211446726e+03 8.7348234650993854e+03 1.9874715819691446e+04 -999 3.18106667e-01 9.327147595e-02 -1.30766923e-01
 111 5 752103 8.5023148483592668e+03 1.2149289628329550e+04 2.4875234320349288e-13 8.5427435796650207e+03 8.1368596598052427e+03 2.5748741493935337e+04 -999 3.24339161e-01 9.165656493e-02 -1.31828055e-01
 112 5 752103 8.5098194778998586e+03 1.2351881031013188e+04 3.7954325942574335e-13 8.6949280541729277e+03 8.2177947409877070e+03 4.2722520729442957e+04 -999 3.31595927e-01 9.023476719e-02 -1.33403893e-01
 113 5 752103 8.7117615696357861e+03 1.3034035287824969e+04 3.8131267499668769e-13 8.6373348720998183e+03 8.6422700275415900e+03 6.7061676925660737e+04 -999 3.39791107e-01 8.895213626e-02 -1.35468623e-01
 114 5 752103 9.6753733671580540e+03 1.5966540236237946e+04 4.8738903261395252e-13 8.9123748888863502e+03 1.1942684024150500e+04 1.0937278443357923e+05 -999 3.48788098e-01 8.778083036e-02 -1.37964945e-01
 115 5 752103 9.8733022500155967e+03 2.0378119302541396e+04 4.7269571313023645e-13 9.5719529965356342e+03 1.8512914862147700e+04 1.6363624286760823e+05 -999 3.52693489e-01 8.735004169e-02 -1.39124609e-01
 116 5 752103 9.4270209583920041e+03 1.3864577374064505e+04 4.5754810567711949e-13 8.8087332712953448e+03 9.2608397543983156e+03 2.3248731373642146e+05 -999 3.60502481e-01 8.656152523e-02 -1.41468934e-01
 117 5 752103 9.3630491614123548e+03 1.3858869416937254e+04 3.4234625346252388e-13 8.5775602448420450e+03 9.4591520473901110e+03 4.2356597548865888e+05 -999 3.68564714e-01 8.588688815e-02 -1.43997566e-01
 118 5 752103 9.1455743512596564e+03 2.2509312748298238e+04 2.3022890874202199e-13 9.6811364117003304e+03 1.3641391327416170e+04 4.7521912535757979e+05 -999 3.73719384e-01 8.551208099e-02 -1.45687032e-01
 119 5 752103 9.0561829996001870e+03 2.2391569893747073e+04 2.2342614228319669e-13 8.4242608013722402e+03 1.5797458736021774e+04 4.8526589700828813e+05 -999 3.74567612e-01 8.545230114e-02 -1.45973597e-01
 120 5 752103 9.0071228957429848e+03 2.2703826382654817e+04 2.1950187423792325e-13 8.3540798491571823e+03 1.6184346437098870e+04 4.4182550577273133e+05 -999 3.75107857e-01 8.541450332e-02 -1.46157021e-01
 121 5 752103 8.5949830817976181e+03 1.1826060788185770e+04 3.4522545295455332e-13 7.9416317632084219e+03 8.5137777074390324e+03 7.3290902265576844e+05 -999 3.84757052e-01 8.475417992e-02 -1.49480595e-01
 122 5 752103 8.1919601725106550e+03 1.0841176225482313e+04 4.0357796659211370e-13 7.9674746237766212e+03 8.1562327640895046e+03 7.7429045450284553e+05 -999 3.93697556e-01 8.409128578e-02 -1.52737485e-01
 123 5 752103 7.9804613950249177e+03 2.5175555840003472e+04 3.6246071038298476e-13 8.7646174103549911e+03 1.3042844789225766e+04 7.6648806955848145e+05 -999 4.00213516e-01 8.348229645e-02 -1.55208071e-01
 124 5 752103 7.9315776364683343e+03 2.6980949566891402e+04 3.4828177356513529e-13 8.1645101416337247e+03 1.2217730173421713e+04 7.3869343987015064e+05 -999 4.01033295e-01 8.339092145e-02 -1.55521659e-01
 125 5 752103 7.9025619060910494e+03 3.0041903543968223e+04 3.4557574462537569e-13 8.1350497243866430e+03 1.1700268948593397e+04 6.7227197506299056e+05 -999 4.01555507e-01 8.333192229e-02 -1.55721196e-01
 126 5 752103 7.8294968201146730e+03 9.3800877704891791e+03 4.1899898412005561e-13 8.0841779228771820e+03 7.7342952963887819e+03 6.4166455335843179e+05 -999 4.08770991e-01 8.251760061e-02 -1.58479306e-01
 127 5 752103 7.7532035891794794e+03 9.2328319740077732e+03 5.3093108222844456e-13 7.7399559846613902e+03 7.7386256608081703e+03 6.5359919134198804e+05 -999 4.15673383e-01 8.163654164e-02 -1.61105061e-01
 128 5 752103 7.6053075209993922e+03 2.0425277512897061e+04 5.5116125014184710e-13 7.7408710630827454e+03 1.0027693559748046e+04 6.5104653836168954e+05 -999 4.19873456e-01 8.103806554e-02 -1.62684818e-01
 129 5 752103 7.5534923970404670e+03 2.2809291064851506e+04 5.5371932096661957e-13 7.5290629237219064e+03 1.0027439475931040e+04 4.3459016737516259e+05 -999 4.20735739e-01 8.091005723e-02 -1.63008040e-01
 130 5 752103 7.5181504615580816e+03 2.1336846305951309e+04 5.5615546788130398e-13 7.4855163680944261e+03 8.9825172838292892e+03 2.9492991508333758e+05 -999 4.21285785e-01 8.082768441e-02 -1.63214070e-01
 131 5 752103 7.1669493602765397e+03 7.7296335152508564e+03 1.0187558996143578e-12 7.1552832346278528e+03 7.0666755845357920e+03 2.9916253470588778e+05 -999 4.29223134e-01 7.965924402e-02 -1.66205914e-01
 132 5 752103 6.9039344726190666e+03 7.1346613616891173e+03 1.2465724510054980e-12 6.7670433226533260e+03 6.8023030549757486e+03 2.4083948258724788e+05 -999 4.37088111e-01 7.850267764e-02 -1.69201499e-01
 133 5 752103 6.7149474129209711e+03 1.3306972471630905e+04 1.3020638286414326e-12 7.0519844121991200e+03 7.7516607045998080e+03 1.5720175878034547e+05 -999 4.45058705e-01 7.742260356e-02 -1.72277755e-01
 134 5 752103 6.6300879713432496e+03 1.8640731149910906e+04 1.3132593672811666e-12 6.6647857466125461e+03 1.0178041541233890e+04 1.0840280279277467e+05 -999 4.46453496e-01 7.725645527e-02 -1.72819497e-01
 135 5 752103 6.5853917882601154e+03 1.9758670908649037e+04 1.3276592434660173e-12 6.4425938698233485e+03 1.0422142318139608e+04 8.9423076701055979e+04 -999 4.47176403e-01 7.717248562e-02 -1.73099930e-01
 136 5 752103 6.2378125512250772e+03 5.8699380354550813e+03 1.6714841600219313e-12 6.1522592014355259e+03 6.1825671290456812e+03 8.7035451907099079e+04 -999 4.57824714e-01 7.605421511e-02 -1.77254120e-01
 137 5 752103 5.9081917872573849e+03 5.3321343122923954e+03 2.1437143043417850e-12 5.7225655022867359e+03 5.8239482038792103e+03 8.1304953375836456e+04 -999 4.69318697e-01 7.510672815e-02 -1.81678406e-01
 138 5 752103 5.7072111069561197e+03 7.9577585097015481e+03 4.7329316105744825e-12 5.9086065460323734e+03 5.8526596610582092e+03 8.6263405031184913e+04 -999 4.81696498e-01 7.429848773e-02 -1.86305496e-01
 139 5 752103 5.6510111938314139e+03 1.0048149258399035e+04 9.5286624597365234e-12 5.5126998043900066e+03 6.5478802557590834e+03 7.8239244875212389e+04 -999 4.83914934e-01 7.418418741e-02 -1.87099495e-01
 140 5 752103 5.6212142904368893e+03 9.7451860087074001e+03 1.0720510976270073e-11 5.3954811335298718e+03 7.1174382719882306e+03 6.6225105703469351e+04 -999 4.85063515e-01 7.412619550e-02 -1.87506898e-01
 141 5 752103 5.2789771133060440e+03 5.2973948867771060e+03 1.4044381299062158e-11 4.9312438275497798e+03 5.3734310550640175e+03 9.6845260134028795e+04 -999 5.07334901e-01 7.323637649e-02 -1.95057918e-01