TITLE = "026.00"

# Column     1            2             3            4             5            6            7            8         9        10       11        12        13
VARIABLES = "ITERATION"  "GRID_LEVEL"  "GRID_SIZE"  "CONTINUITY"  "MOMENTUMX"  "MOMENTUMY"  "MOMENTUMZ"  "ENERGY"  "TURB1"  "TURB2"  "CL_TOT"  "CD_TOT"  "CM_TOT"

#---------------------------------------------------
#   PARTICIPANT, GRID, AND SOLVER INFORMATION
#---------------------------------------------------
DATASETAUXDATA ParticipantID   = "026"
DATASETAUXDATA SubmissionDate  = "October 31, 2024"
DATASETAUXDATA Name            = "Greg McGowan, Ian Eldridge-Allegra, Mike Tree"
DATASETAUXDATA Email           = "ian.eldridge-allegra@corvidtec.com"
DATASETAUXDATA Institution     = "Corvid Technologies"
DATASETAUXDATA SolverName      = "Raven 5.0"
DATASETAUXDATA BasicAlgorithm  = "RANS"
DATASETAUXDATA TurbulenceModel = "SA-comp"
DATASETAUXDATA GridId          = "Unstructured"
DATASETAUXDATA Discretization  = "Finite Volume"
DATASETAUXDATA Order           = "2"
DATASETAUXDATA DistanceCalc    = "KD-Tree"
DATASETAUXDATA Notes           = ""
    

ZONE T="026.00 - Alpha 1.36 degree - Grid Level 1"
AUXDATA Tstatic         = "271.1056 K"
AUXDATA Deltat          = "-999"
AUXDATA GridFileName    = "ONERA-OAT15A_230mmChord_780mmSpan_upZ_2024_09_05_Unstructured_Level-1.pw"
AUXDATA Misc            = ""
1 1 47187 61.278213 137.92269 1.4445604e-13 33.690096 176.18142 3230.5145 -999 -0.00198681000440127 0.08060780635678425 0.001648216821234322
2 1 47187 39.647029 59.311578 1.3219487e-14 12.295893 113.14911 172.54441 -999 -0.001714419277877011 0.07372136453186483 0.00141503935631308
3 1 47187 25.017727 37.660917 1.8766632e-14 5.9213465 71.093199 119.55698 -999 -0.001328250580932472 0.06761567956351341 0.001076668694927503
4 1 47187 15.010424 23.644044 1.2719552e-14 4.1255225 42.910621 87.431137 -999 -0.0006908971758942735 0.06244104316837456 0.0005006866542112649
5 1 47187 9.8240966 14.164782 8.5983556e-15 3.6262213 28.227345 69.620406 -999 0.0004026829905190353 0.05853964256307168 -0.0005122336674216253
6 1 47187 10.691294 12.230373 9.6440236e-15 3.7063341 29.027577 64.734781 -999 0.002199224750871601 0.05649423906644455 -0.002181611580098277
7 1 47187 18.482046 15.248084 1.5331121e-14 4.380849 47.228432 78.57912 -999 0.004984644416814942 0.05681054373870584 -0.004735878424759794
8 1 47187 35.893301 21.069424 4.7872667e-14 5.9497154 89.189705 126.65648 -999 0.008993462371420966 0.05983500230031797 -0.008386998557644548
9 1 47187 64.612531 29.049959 1.4150443e-13 7.9520084 159.97466 173.46456 -999 0.0143099134226601 0.06569366286978727 -0.01315941763459282
10 1 47187 103.92979 38.090484 3.1651849e-13 9.6192344 259.42604 228.71359 -999 0.02096337848848854 0.074356125814339 -0.01905240058144475
11 1 47187 151.42611 46.884174 5.8347894e-13 10.655774 383.14561 321.09925 -999 0.02889982297855408 0.08561485073166489 -0.02596614140703819
12 1 47187 214.78883 56.191324 9.7297998e-13 10.598165 546.13352 2734.0098 -999 0.03794337507532346 0.09898462185748869 -0.03368476195901582
13 1 47187 298.37597 125.56554 1.5081857e-12 9.4142427 767.63993 28358.222 -999 0.04777608880309441 0.1139268512323238 -0.04187757265132482
14 1 47187 369.21144 174.70547 1.9953938e-12 8.651478 952.38789 19046.508 -999 0.05810751730300273 0.130081624839343 -0.05027551776421722
15 1 47187 421.55202 187.14772 2.7616083e-12 12.334526 1089.9579 12091.067 -999 0.0685572958061565 0.1468613133109514 -0.05858894463295287
16 1 47187 456.93835 182.27008 3.0542111e-12 20.24738 1178.5487 7938.7817 -999 0.07868163481096882 0.1636114610351294 -0.06650319602264815
17 1 47187 472.90479 165.11238 3.425187e-12 29.041593 1207.469 5197.748 -999 0.08804530853436963 0.1796421778700788 -0.07373360203102969
18 1 47187 470.86563 140.61366 3.7674938e-12 36.12604 1178.0585 3511.3651 -999 0.09637834687985944 0.194253398420197 -0.08014023254911701
19 1 47187 452.88073 111.35153 4.2730708e-12 38.607082 1096.6124 2495.5164 -999 0.1034762183816804 0.2068202480432301 -0.08562821933760356
20 1 47187 432.62571 79.859991 5.6488245e-12 36.524035 1020.9789 2537.5084 -999 0.1092227794415626 0.2166711932854979 -0.09010833641523153
21 1 47187 426.24079 54.314551 6.3268887e-12 31.530433 1064.4727 47557.812 -999 0.1135270614321197 0.222963304610416 -0.09357807464436632
22 1 47187 351.9359 47.841264 6.4259374e-12 33.13743 820.36321 29430.688 -999 0.1168587199027833 0.2276293998008861 -0.09622513561283612
23 1 47187 287.7834 75.008356 5.8180146e-12 43.021573 690.41526 45917.184 -999 0.1191339735997111 0.2297310743880737 -0.0981184788081228
24 1 47187 196.31689 80.464625 4.7427278e-12 46.123798 426.30061 49353.99 -999 0.1205805530100724 0.230646970957017 -0.09931710249799618
25 1 47187 138.44737 92.746819 3.5170745e-12 55.534695 307.94789 51895.869 -999 0.1215041801763188 0.2299698713762318 -0.100097223199756
26 1 47187 120.12532 58.362741 3.2338854e-12 57.474033 281.01693 43313.643 -999 0.1220784897172872 0.2280967221161368 -0.1006162440369807
27 1 47187 129.97091 50.134002 2.2181326e-12 56.503988 307.07459 38669.256 -999 0.1225085378474264 0.2255311702669051 -0.1009543703358389
28 1 47187 128.42892 42.06768 2.8437475e-12 51.156391 301.25127 56952.722 -999 0.1231652507474842 0.2223696485946571 -0.1015380061030517
29 1 47187 140.14833 49.237265 3.9932454e-12 40.988264 329.31067 56850.727 -999 0.1239301042573018 0.219349126276511 -0.1022306450012193
30 1 47187 144.90229 63.596514 6.1845133e-12 30.861347 346.93725 58162.055 -999 0.124617104889189 0.2162348088357005 -0.102940549131451
31 1 47187 136.57784 60.633063 3.1420948e-12 23.043444 319.756 49841.599 -999 0.1249838442447739 0.213097891794418 -0.1034408493342293
32 1 47187 120.10335 53.282783 3.1645542e-12 23.495883 269.58406 60616.681 -999 0.1250333896293261 0.2098349640476758 -0.1037474407471925
33 1 47187 123.88465 49.76176 3.4975447e-12 27.048749 286.97056 66370.986 -999 0.1250277157187032 0.2066992675934652 -0.1039748858253875
34 1 47187 127.85046 36.327929 3.6071314e-12 29.735151 303.71309 62799.791 -999 0.1251177586988522 0.2035231359119321 -0.1040868530286153
35 1 47187 117.33083 31.125128 2.5844372e-12 32.441959 277.55613 67390.408 -999 0.1252632710212497 0.2001770561910552 -0.104094246135279
36 1 47187 94.167929 26.407399 1.6889063e-12 36.281006 221.85685 68076.316 -999 0.12546529656999 0.1965035280651233 -0.1039387714092202
37 1 47187 114.59021 30.142914 2.6179105e-12 41.37777 294.41924 59783.847 -999 0.1255164322003585 0.1931941922674676 -0.1036455644535954
38 1 47187 112.55245 35.926122 1.804983e-12 48.093757 285.89715 61857.7 -999 0.1255992744247094 0.1899148059799463 -0.1033776214936664
39 1 47187 117.08551 29.164944 1.3027272e-12 52.324729 293.59007 50067.716 -999 0.125954320453625 0.1864841882379484 -0.1034544683787319
40 1 47187 136.5748 32.384623 2.3196511e-12 58.142731 345.32145 55695.026 -999 0.1265084955441556 0.1834352962675939 -0.103939538315493
41 1 47187 136.35647 30.500354 1.9141993e-12 62.691351 337.79634 58764.451 -999 0.126713619289758 0.1802684112103956 -0.1046033265382759
42 1 47187 160.20504 37.70457 2.2912366e-12 66.555054 403.74942 51319.099 -999 0.1262305738908475 0.177784400468929 -0.1051559312381155
43 1 47187 155.74083 28.232119 2.0429043e-12 67.460804 382.2497 33570.4 -999 0.125010225323528 0.174799648480697 -0.1053981746363496
44 1 47187 169.46464 33.477588 1.7913771e-12 65.733148 422.93444 47408.28 -999 0.1230642400654852 0.1722219994077667 -0.1053518613350714
45 1 47187 166.78521 29.57928 1.2742926e-12 60.601225 411.00193 39351.612 -999 0.1209379239539047 0.1694062992539705 -0.1052317451849657
46 1 47187 167.98173 26.885644 1.1336254e-12 53.360734 413.52966 23212.031 -999 0.119154505780636 0.1666621462275215 -0.1052491814064183
47 1 47187 159.12909 27.004099 1.3168158e-12 45.420745 390.54982 27477.514 -999 0.1181635429823707 0.163826156776983 -0.1055050265250643
48 1 47187 147.93412 26.30655 1.5857412e-12 39.669368 364.66458 39721.798 -999 0.1179183270974794 0.1611701088181408 -0.1059750222160625
49 1 47187 125.66533 22.705397 1.6228043e-12 36.477081 305.34839 32265.063 -999 0.1182228638409777 0.1582507187661062 -0.1064921129277821
50 1 47187 122.89499 26.938471 1.7476077e-12 35.644311 311.61481 70439.333 -999 0.1184061068361347 0.1558099531168768 -0.1068380549258331
51 1 47187 110.86962 25.89611 1.5036168e-12 36.357986 280.12416 43282.545 -999 0.1181805151338703 0.1531004226130229 -0.1069116731034897
52 1 47187 111.80346 27.536018 1.5998904e-12 39.263731 285.81123 45820.203 -999 0.1174509231950285 0.1505588629065533 -0.1067388699476182
53 1 47187 114.83722 29.275708 1.2893092e-12 43.491198 294.16793 25686.79 -999 0.1161069368379261 0.1480756976388576 -0.1064102125538687
54 1 47187 123.56554 32.931034 1.4138667e-12 49.097662 317.81224 40489.997 -999 0.1146988513378194 0.1457970246923019 -0.1060298537528025
55 1 47187 138.42086 39.884211 1.306663e-12 57.582284 354.77235 29397.612 -999 0.1133637585594045 0.1437116780611582 -0.1056604163851916
56 1 47187 163.61404 52.058423 1.3098374e-12 70.776979 424.02004 35270.41 -999 0.1118135666779102 0.1420121735264336 -0.1052960042016432
57 1 47187 187.61967 62.09881 1.3075579e-12 81.989018 487.80287 44313.109 -999 0.1100321157091429 0.14020384193746 -0.1049302618565787
58 1 47187 212.57175 68.244601 1.5663538e-12 87.250048 552.71846 57247.928 -999 0.1082171381887349 0.138357812284266 -0.1045624967622186
59 1 47187 233.72004 69.104183 1.8554363e-12 84.434461 605.04454 17183.986 -999 0.106279179532272 0.1362021154210148 -0.1041898061412812
60 1 47187 249.24359 64.818464 2.4290903e-12 73.52287 642.80241 41382.622 -999 0.1042647601357856 0.1340241370281983 -0.1038114634788844
61 1 47187 252.35566 54.978711 2.9296012e-12 56.549298 645.55877 16425.671 -999 0.1022116570531549 0.131479501833079 -0.1034268561501805
62 1 47187 243.53367 42.599721 3.3551772e-12 37.004922 618.48927 31422.511 -999 0.09998466308584762 0.1289769513249779 -0.1030302074953264
63 1 47187 214.28672 27.513194 3.3141853e-12 18.427061 537.5444 42714.074 -999 0.09760679126943816 0.1262639464238507 -0.1026200525235288
64 1 47187 168.02104 14.617546 3.0285663e-12 13.96267 416.14948 50240.186 -999 0.09506881643759528 0.1235991519983703 -0.102197164948908
65 1 47187 114.86602 7.1580071 2.3633336e-12 15.906985 281.19044 21659.225 -999 0.09248137963878436 0.1209335070528592 -0.1017654540543097
66 1 47187 69.875454 5.1433714 1.6795729e-12 13.535907 171.84736 21421.531 -999 0.09002225658517027 0.1186564998840109 -0.1013292326689179
67 1 47187 37.026832 3.9449131 1.0386545e-12 8.7917454 92.193714 12760.651 -999 0.0876375023379857 0.1166571460594577 -0.1008866055339641
68 1 47187 22.224137 3.5948539 6.760325e-13 4.9155117 59.684608 26305.121 -999 0.08534360233371918 0.1150475841422315 -0.1004369897782221
69 1 47187 11.833258 2.1868309 4.5989027e-13 2.5567508 32.587409 14601.441 -999 0.08305765629526154 0.1135459299543999 -0.0999782342822668
70 1 47187 16.231767 3.0391958 6.9312963e-13 1.3690867 47.444873 24777.769 -999 0.08073151515874159 0.1122365219320744 -0.09950948657520708
71 1 47187 12.718827 3.1599574 3.4275657e-13 1.2439385 37.845011 21269.318 -999 0.07834630651132604 0.1108639638106633 -0.09903184477929544
72 1 47187 14.959043 2.6145725 4.8815555e-13 0.87985521 43.227595 14600.557 -999 0.07593837752390453 0.1095565543874361 -0.09854849920407806
73 1 47187 10.599859 1.5879944 1.8352156e-13 0.59089032 29.791511 6714.3171 -999 0.07352843811631282 0.1081997789981966 -0.0980628828584712
74 1 47187 14.842533 2.9398174 3.2318951e-13 1.4102086 43.318266 23057.602 -999 0.07114683349700641 0.1069715540177839 -0.09757960956776908
75 1 47187 11.966386 2.2678389 1.9439635e-13 0.62038563 34.536228 11288.956 -999 0.06878596561007023 0.1057228662133177 -0.09710144267933568
76 1 47187 14.949075 3.1633668 3.4160998e-13 1.3558038 43.577652 22149.793 -999 0.06648063634476832 0.1045979979090531 -0.09663190950639867
77 1 47187 8.9024147 1.2155822 1.0852835e-13 0.53102179 24.88583 6526.5567 -999 0.0642162143898898 0.103431219796941 -0.09617515151866128
78 1 47187 14.470778 2.4521862 1.8192688e-13 0.74949234 41.899391 16058.425 -999 0.06203493422126546 0.1024307386201206 -0.09573662977223764
79 1 47187 11.436662 2.4805972 1.4950387e-13 1.0498078 33.8526 18782.927 -999 0.05992306805530429 0.1014166712082292 -0.09532245543492011
80 1 47187 13.319147 1.9591137 2.1668045e-13 0.84584022 38.262498 14835.465 -999 0.05792112018935541 0.1005146360461681 -0.09493764223583312
81 1 47187 8.6073079 0.94160736 5.3438638e-14 0.43115046 24.063396 6121.1674 -999 0.05601708512290767 0.09959482327341536 -0.09458731115691038
82 1 47187 11.905927 1.7433564 1.2584225e-13 0.8570631 34.482085 15753.244 -999 0.05424044915851831 0.0988170960149768 -0.09427659871250356
83 1 47187 9.5976617 1.6239492 7.233221e-14 1.000192 28.161131 15187.364 -999 0.05258646346588353 0.0980432589744831 -0.09400983532510432
84 1 47187 11.415499 1.6903071 1.4205099e-13 1.1159358 33.233094 17700.317 -999 0.05109170437819449 0.097375873419923 -0.0937927738739898
85 1 47187 6.5627659 0.65576798 4.73778e-14 0.43976857 18.288127 5853.6113 -999 0.0497281336714141 0.09668773530414984 -0.09362870633162176
86 1 47187 9.4990783 1.1655502 1.5860291e-13 0.65870874 27.567509 13534.004 -999 0.04852882584825964 0.09612555512180444 -0.0935227389390515
87 1 47187 7.809149 1.3121193 1.0703769e-13 0.91937519 23.316354 17684.915 -999 0.04748312857953395 0.0955733178018982 -0.09348026422180082
88 1 47187 8.9012654 1.3441014 1.6716014e-13 1.0217892 26.222033 18716.428 -999 0.04662784425457436 0.09510509732185728 -0.09350500034589652
89 1 47187 5.1839659 0.55515778 7.2068657e-14 0.36487753 14.529219 5744.6956 -999 0.04594104185295628 0.09462733222200484 -0.0936012196092308
90 1 47187 7.3747049 1.0121467 1.8505526e-13 0.77207084 21.734972 16341.436 -999 0.04544281941679114 0.09424991892660356 -0.09377304563046084
91 1 47187 5.8845986 0.97356256 1.2618466e-13 0.93105556 17.673451 17543.984 -999 0.04513551162052926 0.0938790886853271 -0.09402534070870208
92 1 47187 6.6680615 0.88953092 1.8502624e-13 0.81228455 19.781844 18528.834 -999 0.04504225286223346 0.09357451036162244 -0.09436244357923768
93 1 47187 4.327698 0.54644583 8.1324959e-14 0.38233857 12.153557 6012.4159 -999 0.04513075442788058 0.09326670563442914 -0.09478310431869089
94 1 47187 5.3479504 0.68251429 1.8280256e-13 0.59823959 15.828005 13737.418 -999 0.04542772652671611 0.09302790890301864 -0.09529204833760108
95 1 47187 4.0294064 0.60783284 1.2107619e-13 0.57601352 12.015956 13108.633 -999 0.04591932389009071 0.09279515895456536 -0.09589315283732244
96 1 47187 4.5714278 0.70203026 1.6358898e-13 0.72280669 13.789756 16469.673 -999 0.04661712234798703 0.09261140422926548 -0.09658716082772088
97 1 47187 3.1132671 0.4795784 7.3153322e-14 0.33961619 8.8764083 6101.9244 -999 0.04751057474871596 0.0924267948575496 -0.09737754778085708
98 1 47187 3.9164691 0.63887004 1.5062394e-13 0.63886444 11.903973 14640.472 -999 0.04861057704805321 0.09229061969254292 -0.09826594210027131
99 1 47187 2.8445046 0.55030383 1.0679749e-13 0.6245277 8.6096408 12751.746 -999 0.04990330012754964 0.09215412812446544 -0.09925440830297814
100 1 47187 3.2920773 0.60054279 1.3049555e-13 0.66106445 10.035487 13496.098 -999 0.05139463055656866 0.09205266548614648 -0.1003442142144221
101 1 47187 2.3353526 0.47309063 6.7793987e-14 0.37874648 6.7846455 6567.1809 -999 0.05307269482883779 0.09194923187826824 -0.1015377017735877
102 1 47187 3.0035627 0.63457124 1.1543755e-13 0.72012114 9.2516357 14620.659 -999 0.05493945873444687 0.09188013823746376 -0.1028336065219728
103 1 47187 2.2479729 0.53381833 7.3828422e-14 0.69199138 6.8516734 12644.503 -999 0.05697792424098937 0.09180798758029653 -0.1042323940353882
104 1 47187 2.7548459 0.61488209 1.1114308e-13 0.77104604 8.4277108 14541.162 -999 0.05919287939144127 0.09176204914522712 -0.1057348687559251
105 1 47187 1.9315091 0.49726653 6.4675734e-14 0.44065415 5.6178358 7807.0053 -999 0.06156905785752146 0.09171062072375516 -0.1073412537634604
106 1 47187 2.7653042 0.6338463 8.4992095e-14 0.8313244 8.4009431 14921.843 -999 0.06411066326548429 0.09168717770666368 -0.109051274147859
107 1 47187 2.0697479 0.51404244 4.536997e-14 0.72598482 6.1857475 12101.068 -999 0.0667981019127589 0.09165775671362256 -0.1108651608803283
108 1 47187 2.6149326 0.59271428 8.6620784e-14 0.79618109 7.761397 13646.765 -999 0.06963491552177045 0.09165055901029286 -0.1127813361991717
109 1 47187 1.7614135 0.52602422 5.819782e-14 0.47456155 4.9249131 8559.9728 -999 0.07260505290861763 0.09163667516757268 -0.1147994535794404
110 1 47187 2.6916964 0.61950473 5.9752592e-14 0.89319213 7.9318662 14980.841 -999 0.0757134897243978 0.09164812868588172 -0.1169180572968835
111 1 47187 1.9668879 0.50782789 3.3451271e-14 0.7431873 5.682933 12105.216 -999 0.07893692742023442 0.09165356357729532 -0.1191353407003004
112 1 47187 2.5229355 0.59986064 7.2001781e-14 0.84043561 7.2276609 14186.976 -999 0.08228278579920989 0.09167916101257872 -0.1214503527290804
113 1 47187 1.6432594 0.52938361 4.5987086e-14 0.47753958 4.3314651 7957.5274 -999 0.08572962372056275 0.09169952125449544 -0.1238601274366158
114 1 47187 2.5731237 0.63208749 5.1132237e-14 0.89318962 7.299305 14707.671 -999 0.08928603891477387 0.09174274576218187 -0.1263624655127071
115 1 47187 1.8060107 0.53473153 2.7982411e-14 0.73221078 4.9347836 12016.849 -999 0.0929280175249394 0.09178225382386734 -0.1289548078461037
116 1 47187 2.3333858 0.64169692 6.273458e-14 0.81441145 6.3437267 13764.92 -999 0.09666365463983057 0.0918387434353601 -0.131634111422729
117 1 47187 1.5712796 0.57417953 3.6480689e-14 0.49560318 3.8407612 8141.8358 -999 0.1004712809675858 0.09189400660803052 -0.1343966778291475
118 1 47187 2.4427958 0.70451246 5.1533136e-14 0.88870585 6.6115245 14874.921 -999 0.1043599493138078 0.09196741253031912 -0.1372387860961141
119 1 47187 1.7399679 0.61257629 2.4946936e-14 0.72025426 4.392764 11915.745 -999 0.1083032858431197 0.09204073976513602 -0.1401555937956594
120 1 47187 2.3054244 0.73106158 6.0652298e-14 0.81189154 5.9208475 13849.538 -999 0.112310878071516 0.09212649849944005 -0.1431429122766351
121 1 47187 1.6996102 0.62234054 2.9627441e-14 0.51376242 3.9865546 8096.8777 -999 0.1163573300922762 0.0922151063533085 -0.1461942403287611
122 1 47187 2.5354481 0.78801141 5.6390967e-14 0.87111116 6.5670006 14607.683 -999 0.1204524314919439 0.0923150786016949 -0.1493044216806853
123 1 47187 1.9290614 0.68395288 2.7426497e-14 0.71358038 4.6896845 11549.572 -999 0.1245688436777883 0.09241797449405824 -0.152466909221726
124 1 47187 2.5357622 0.80333193 6.2995457e-14 0.81392802 6.3572711 13620.601 -999 0.1287150742860474 0.092527308177625 -0.1556753266765713
125 1 47187 1.9814323 0.66120855 2.7596241e-14 0.53759285 4.7280164 8135.8519 -999 0.132865967569326 0.09264196103877904 -0.1589221182963928
126 1 47187 2.7896846 0.8413598 5.954993e-14 0.88556133 7.1569233 14661.819 -999 0.1370300379853603 0.09276068672209896 -0.1622002869518696
127 1 47187 2.2157554 0.71285705 2.979314e-14 0.7346204 5.4719716 11361.966 -999 0.141180287263096 0.09288337287592374 -0.1655022612757761
128 1 47187 2.8269678 0.82697316 6.1451456e-14 0.84115558 7.1630702 13451.463 -999 0.1453250518240829 0.0930060941381627 -0.1688204351086688
129 1 47187 2.2453652 0.67451163 2.5423981e-14 0.56880997 5.5139008 8155.9632 -999 0.1494397832019489 0.09313370868041596 -0.1721468722662881
130 1 47187 3.0035622 0.84259038 5.481627e-14 0.91050586 7.7630381 14392.145 -999 0.153533389179409 0.09325875432465004 -0.1754740507337934
131 1 47187 2.423779 0.69606374 2.6267247e-14 0.76650881 6.1030691 11113.964 -999 0.1575782295433192 0.09338557499500046 -0.178792773390068
132 1 47187 2.9952293 0.80632601 5.1646806e-14 0.88403515 7.6956169 13340.169 -999 0.1615853864719083 0.09350661907965616 -0.1820971797974732
133 1 47187 2.4032713 0.66471913 2.0123955e-14 0.60303227 6.0055726 8159.8699 -999 0.1655337844902821 0.0936294121632852 -0.1853809493231165
134 1 47187 3.0806318 0.80916919 4.2312602e-14 0.95144521 8.0240697 14271.467 -999 0.1694333302388195 0.09374457445506117 -0.1886370074839225
135 1 47187 2.5113999 0.65477692 1.8365923e-14 0.80442198 6.3805168 10932.86 -999 0.1732606985712945 0.09385751688227732 -0.1918583755553221
136 1 47187 3.0144025 0.76508177 3.609316e-14 0.92925808 7.7981391 13281.852 -999 0.17702611640463 0.09396002832763044 -0.1950382322837855
137 1 47187 2.4571993 0.64092849 1.4044479e-14 0.63412882 6.1667075 8134.1334 -999 0.1807103227666475 0.09405848380618448 -0.1981708577429297
138 1 47187 3.0528043 0.77128963 2.7586521e-14 0.99611543 7.9690053 14278.658 -999 0.1843256102490744 0.09414515750585052 -0.2012509071726517
139 1 47187 2.5291607 0.61525092 1.280955e-14 0.84075877 6.4118954 10879.671 -999 0.1878505879507314 0.09422344782714231 -0.2042725254901913
140 1 47187 2.9585628 0.72222283 2.2222624e-14 0.96984661 7.6417969 13245.571 -999 0.191298316251276 0.09428763309316354 -0.2072310583739509
141 1 47187 2.4637129 0.61601478 1.3171348e-14 0.66113132 6.1469912 8131.2695 -999 0.1946509027494717 0.0943408004316428 -0.2101217756737576
142 1 47187 2.986542 0.7291423 2.0521229e-14 1.0296461 7.7520153 14181.773 -999 0.1979213456712888 0.09437913132507487 -0.2129399182002239
143 1 47187 2.5253129 0.57808632 1.5171227e-14 0.86637986 6.3337719 10781.9 -999 0.2010906772302962 0.09440225866243385 -0.2156814046911568
144 1 47187 2.8873973 0.68107546 2.1165977e-14 0.99643127 7.3902742 13147.001 -999 0.2041758279205887 0.0944082958518732 -0.2183440455349145
145 1 47187 2.4377194 0.58948888 1.7301985e-14 0.68106962 6.014247 8132.6229 -999 0.2071586888210315 0.09439653688312688 -0.2209229128181956
146 1 47187 2.9016526 0.6976991 2.4841599e-14 1.0512361 7.4696478 14156.305 -999 0.2100540019964911 0.09436750787937656 -0.2234149016202846
147 1 47187 2.4673388 0.54978251 1.9050848e-14 0.88342189 6.1302328 10761.554 -999 0.2128440152978647 0.09431703559459716 -0.2258164471577386
148 1 47187 2.7852843 0.65281354 2.7919519e-14 1.0120113 7.066178 13147.1 -999 0.215543792588652 0.0942469698040367 -0.2281250574211376
149 1 47187 2.3611439 0.56241516 2.1002515e-14 0.69457837 5.7634768 8149.1863 -999 0.2181391564077547 0.09415325081549628 -0.2303380790873835
150 1 47187 2.7953814 0.67700117 2.9783048e-14 1.0606661 7.1408252 14177.846 -999 0.2206454449159947 0.09404033836610055 -0.2324534417075311
151 1 47187 2.3784064 0.52821674 2.0206976e-14 0.8923804 5.8575856 10783.541 -999 0.2230467051385552 0.09390118382350396 -0.2344688147134059
152 1 47187 2.6561828 0.63369907 3.197229e-14 1.0161483 6.684776 13177.944 -999 0.2253596928580528 0.09374051366350848 -0.2363836419621785
153 1 47187 2.2408673 0.53740538 2.2279329e-14 0.70230351 5.4202184 8179.3559 -999 0.2275714486429616 0.0935523147469154 -0.2381961172498556
154 1 47187 2.6461219 0.66869284 3.0571252e-14 1.0643578 6.7261902 14349.59 -999 0.2296979180522816 0.09334359000990196 -0.239905521609124
155 1 47187 2.2324265 0.51398126 1.8590636e-14 0.89517402 5.4647209 10824.949 -999 0.2317257489712895 0.09310563372463364 -0.2415111561564861
156 1 47187 2.4810808 0.62542286 3.1365392e-14 1.0143143 6.2136263 13245.511 -999 0.2336710450422217 0.09284535125284292 -0.2430133557875135
157 1 47187 2.0716994 0.51835145 2.1103911e-14 0.70575013 4.9793267 8215.2197 -999 0.2355244430172888 0.09255579019332431 -0.2444127001070987
158 1 47187 2.4437743 0.66889592 2.7450072e-14 1.0541182 6.1934713 14313.059 -999 0.2373027867774433 0.09224530015654626 -0.2457102211268778
159 1 47187 2.044653 0.50885203 1.5470452e-14 0.89465982 4.9854219 10867.437 -999 0.238995832848989 0.09190527268102112 -0.2469077688894663
160 1 47187 2.2641104 0.63016399 2.7116087e-14 1.0110232 5.6559948 13324.842 -999 0.2406203236022463 0.091543441603922 -0.2480078069349564
161 1 47187 1.8736134 0.50880299 1.8250113e-14 0.70739035 4.4858608 8248.4851 -999 0.2421707024692617 0.09115352214919548 -0.249013742517891
162 1 47187 2.1987808 0.68058998 2.2217247e-14 1.0441577 5.5656999 14275.029 -999 0.2436656925634572 0.09074393006525268 -0.249929759951779
163 1 47187 1.8309112 0.51292877 1.2377923e-14 0.89390267 4.4513979 10900.618 -999 0.2450970304388391 0.09030744448473878 -0.2507587397021165
164 1 47187 2.022686 0.64335936 2.131852e-14 1.0086547 5.0456635 13337.539 -999 0.2464834952385455 0.08985144538063079 -0.2515062196050653
165 1 47187 1.6818419 0.5064412 1.4783901e-14 0.70969867 4.0140605 8273.9648 -999 0.2478217616740903 0.08937102111626191 -0.2521771977669824
166 1 47187 1.9728299 0.69760733 1.7065111e-14 1.0355317 4.9790245 14191.756 -999 0.2491306706497149 0.08887387828719316 -0.2527779636719875
167 1 47187 1.6624819 0.52332575 1.0461209e-14 0.89423476 4.0240586 10920.27 -999 0.250406591963475 0.08835473794200213 -0.2533145111837013
168 1 47187 1.8364857 0.66208253 1.6142845e-14 1.0081097 4.5613779 13338.375 -999 0.2516671825863837 0.08782011427411797 -0.2537934044385707
169 1 47187 1.567676 0.51020976 1.1783686e-14 0.71371727 3.7280081 8293.1444 -999 0.2529112317408349 0.08726700167053113 -0.2542209992364888
170 1 47187 1.8150827 0.72222995 1.3646855e-14 1.0342189 4.5513548 14247.557 -999 0.254156690312437 0.08670149754093463 -0.2546046785890756
171 1 47187 1.5728463 0.53815632 9.8762364e-15 0.89594176 3.785397 10927.723 -999 0.2554016985259132 0.08612073711363659 -0.2549513918331146
172 1 47187 1.7233905 0.684753 1.3077398e-14 1.0106924 4.2555194 13336.222 -999 0.2566627595129315 0.08552965117176109 -0.255268311233958
173 1 47187 1.5191992 0.51803342 9.8005077e-15 0.71944695 3.6066524 8307.7219 -999 0.257939382365903 0.08492746712282108 -0.2555622785519912
174 1 47187 1.7126523 0.7459755 1.2573556e-14 1.0325572 4.2634712 14201.766 -999 0.2592485662945355 0.08431823151350801 -0.2558413409501541
175 1 47187 1.5265832 0.55491617 1.0007774e-14 0.89872495 3.6642061 10926.501 -999 0.2605887189717535 0.08370141054996871 -0.2561121219113476
176 1 47187 1.6432752 0.70752497 1.235218e-14 1.0145005 4.0454085 13323.96 -999 0.2619738532396572 0.08308011253710673 -0.2563813875543194
177 1 47187 1.4788916 0.52607514 8.8026615e-15 0.72653992 3.517707 8319.774 -999 0.2634035448594867 0.08245547793440228 -0.2566553577230154
178 1 47187 1.6194675 0.77000656 1.2933219e-14 1.0335832 4.0212763 14197.38 -999 0.2648900140802192 0.08182938790745377 -0.2569398372088598
179 1 47187 1.4629119 0.5707596 1.0249725e-14 0.90202097 3.519148 10920.097 -999 0.2664318430687579 0.08120352401646175 -0.2572407552802024
180 1 47187 1.546751 0.72878036 1.284803e-14 1.0191529 3.8214742 13310.699 -999 0.2680403687335779 0.08057887543569187 -0.2575638402489632
181 1 47187 1.401283 0.53213703 8.4050934e-15 0.73444103 3.3531268 8331.7436 -999 0.2697118416520413 0.07995836990179385 -0.2579119974070371
182 1 47187 1.5067952 0.79123864 1.3569377e-14 1.0348518 3.7601235 14169.625 -999 0.2714569413236219 0.0793416579594996 -0.2582908720223606
183 1 47187 1.3673733 0.58467995 1.0384431e-14 0.9057544 3.3168607 10909.239 -999 0.2732719991127549 0.07873212566912928 -0.2587034132444748
184 1 47187 1.436935 0.74783351 1.344994e-14 1.0246127 3.590553 13294.829 -999 0.2751628206744938 0.07812868725325028 -0.259152146877969
185 1 47187 1.302184 0.53599691 8.3010405e-15 0.74318128 3.1485106 8343.7836 -999 0.2771263026467334 0.07753574834000419 -0.2596394561833266
186 1 47187 1.3935509 0.81120008 1.3980443e-14 1.0376208 3.5226935 14154.249 -999 0.2791661686327771 0.07695065407305265 -0.2601666067939553
187 1 47187 1.2660691 0.59693441 1.0418087e-14 0.90931195 3.1155696 10900.205 -999 0.2812792868947302 0.0763781992785108 -0.260735500828705
188 1 47187 1.3367972 0.76530417 1.3763903e-14 1.030162 3.4011169 13279.454 -999 0.2834663170135316 0.07581527875817695 -0.2613455298288925
189 1 47187 1.2064789 0.53844381 8.3225355e-15 0.75119767 2.9590579 8355.8236 -999 0.2857217984076145 0.07526741225736086 -0.2619960905691439
190 1 47187 1.299653 0.82920219 1.4029704e-14 1.0405193 3.348561 14132.855 -999 0.2880462357590396 0.07472974622386863 -0.262686662868775
191 1 47187 1.1814616 0.60742159 1.0272568e-14 0.91266801 2.9639444 10891.938 -999 0.290432168402952 0.07420843989677219 -0.2634149164730979
192 1 47187 1.2622658 0.78059651 1.3716821e-14 1.0359221 3.2828591 13264.123 -999 0.2928790521510513 0.07369824875919259 -0.2641795343187722
193 1 47187 1.1303955 0.53936327 8.2912123e-15 0.75863108 2.8169431 8370.1508 -999 0.2953801404674689 0.07320557823782459 -0.2649777850571879
194 1 47187 1.2338687 0.84471431 1.370998e-14 1.043515 3.2495011 14115.566 -999 0.2979311329886871 0.07272349653098821 -0.2658061413118574
195 1 47187 1.1177406 0.61521162 9.8472613e-15 0.91590007 2.8626675 10887.137 -999 0.3005252321739963 0.07225934621929803 -0.2666616260018873
196 1 47187 1.2084664 0.79284646 1.3340295e-14 1.0415105 3.2150447 13251.004 -999 0.3031580986441375 0.0718059256601126 -0.2675403914639844
197 1 47187 1.0669597 0.53842787 8.153562e-15 0.76544254 2.7005209 8383.9169 -999 0.3058215142420618 0.0713704239806577 -0.2684377247483141
198 1 47187 1.1845454 0.85666066 1.3113459e-14 1.0465081 3.1882395 14104.581 -999 0.308509873253397 0.07094418087157783 -0.2693495049523391
199 1 47187 1.0607027 0.61988734 9.2217482e-15 0.91929595 2.7724917 10888.793 -999 0.3112149514310137 0.07053527066189703 -0.2702706917486938
200 1 47187 1.1617801 0.80120939 1.2735941e-14 1.0470391 3.156797 13239.495 -999 0.3139305344499288 0.07013513269459352 -0.2711965297965694
201 1 47187 1.2847499 0.82580821 5.4426987e-13 1.0888482 2.9487712 8401.272 -999 0.3165836242084152 0.06972557828566131 -0.2720878143632263
202 1 47187 3.933841 1.9879687 1.0157362e-12 1.542487 9.9913917 14078.752 -999 0.3189685621502361 0.06931577726151378 -0.2728992850833611
203 1 47187 6.5941907 2.3470057 6.70433e-13 1.7113245 16.962458 10331.72 -999 0.3214512021082967 0.06878115778440311 -0.2737250544451457
204 1 47187 11.923988 3.2277201 8.4983377e-13 1.9907876 30.856248 11871.093 -999 0.324121200035781 0.06814253479488229 -0.2745856545292832