TITLE = "026.00"

# Column     1            2             3            4             5            6            7            8         9        10       11        12        13
VARIABLES = "ITERATION"  "GRID_LEVEL"  "GRID_SIZE"  "CONTINUITY"  "MOMENTUMX"  "MOMENTUMY"  "MOMENTUMZ"  "ENERGY"  "TURB1"  "TURB2"  "CL_TOT"  "CD_TOT"  "CM_TOT"

#---------------------------------------------------
#   PARTICIPANT, GRID, AND SOLVER INFORMATION
#---------------------------------------------------
DATASETAUXDATA ParticipantID   = "026"
DATASETAUXDATA SubmissionDate  = "October 31, 2024"
DATASETAUXDATA Name            = "Greg McGowan, Ian Eldridge-Allegra, Mike Tree"
DATASETAUXDATA Email           = "ian.eldridge-allegra@corvidtec.com"
DATASETAUXDATA Institution     = "Corvid Technologies"
DATASETAUXDATA SolverName      = "Raven 5.0"
DATASETAUXDATA BasicAlgorithm  = "RANS"
DATASETAUXDATA TurbulenceModel = "SA-comp"
DATASETAUXDATA GridId          = "Unstructured"
DATASETAUXDATA Discretization  = "Finite Volume"
DATASETAUXDATA Order           = "2"
DATASETAUXDATA DistanceCalc    = "KD-Tree"
DATASETAUXDATA Notes           = ""
    

ZONE T="026.00 - Alpha 1.36 degree - Grid Level 2"
AUXDATA Tstatic         = "271.1056 K"
AUXDATA Deltat          = "-999"
AUXDATA GridFileName    = "ONERA-OAT15A_230mmChord_780mmSpan_upZ_2024_09_05_Unstructured_Level-2.pw"
AUXDATA Misc            = ""
1 2 89616 73.285443 323.23057 5.5155021e-13 67.888275 207.43617 9920.987 -999 -0.002806510498903883 0.1125028361354902 0.002330434096369776
2 2 89616 47.869694 73.660532 3.3751678e-14 16.600042 134.7742 173.25013 -999 -0.002449206566420742 0.09931534411291544 0.002030215051249701
3 2 89616 30.458126 47.40738 2.7585984e-14 8.533991 85.915803 108.35367 -999 -0.002129986008389488 0.08810838585565606 0.001763542237875351
4 2 89616 18.225788 30.076916 3.169999e-14 5.7095158 52.211023 81.765476 -999 -0.001822968361430737 0.07855654608538301 0.00150695597249586
5 2 89616 10.428231 19.272891 3.2724515e-14 4.4252969 30.78047 64.122632 -999 -0.00149960355364984 0.07040435519825983 0.001235098331424196
6 2 89616 7.0635879 11.286206 1.662115e-14 3.3904562 20.797517 53.546767 -999 -0.001120546848109514 0.06340604254138572 0.0009120519229436256
7 2 89616 7.1856478 9.9333519 1.3294842e-14 2.4529711 20.212083 49.499111 -999 -0.000644745798050515 0.05754853894676486 0.0004980416205113188
8 2 89616 8.5868986 10.694789 1.2168604e-14 2.2095738 23.880126 48.928171 -999 -1.110992222188898e-05 0.05282404480222633 -6.624602679395231e-05
9 2 89616 10.956782 12.515236 1.3447175e-14 2.5766987 30.100566 51.5149 -999 0.0008622687088804383 0.04930686935318777 -0.0008579392850630847
10 2 89616 14.946222 15.744527 1.7196215e-14 3.325338 40.274894 59.698361 -999 0.002063842236519181 0.04714762513154377 -0.001960978760554234
11 2 89616 22.628127 20.507687 2.8614152e-14 4.4564777 59.172817 76.985522 -999 0.003720283505347209 0.04651885350864624 -0.003481510167777805
12 2 89616 36.48216 26.833536 6.1979212e-14 5.9440445 93.097131 103.34846 -999 0.005928931823840297 0.04758069941148489 -0.005508092372777475
13 2 89616 58.147198 34.621161 1.3678335e-13 7.7426171 146.90045 145.4956 -999 0.008789230556281459 0.05046426862259357 -0.008115022862815305
14 2 89616 87.79731 43.473134 2.7678425e-13 9.7150059 222.08497 204.80797 -999 0.01238029189363784 0.05524882984573764 -0.01136340512288715
15 2 89616 124.93337 52.74933 5.0572538e-13 11.641618 318.38881 280.10057 -999 0.01675090575344986 0.06195029894389576 -0.01528154470670129
16 2 89616 168.38589 61.535418 8.4126233e-13 13.179316 433.72239 374.86797 -999 0.02191126835332798 0.07051669408654487 -0.01985658925459344
17 2 89616 219.45989 69.942381 1.2922678e-12 13.953845 571.04554 3014.0458 -999 0.02782838833212268 0.08080838107086354 -0.02503498949925022
18 2 89616 282.93643 96.474116 1.9345333e-12 13.703415 741.11737 25175.257 -999 0.03442185124011432 0.0925679547944975 -0.03072485445170023
19 2 89616 362.17546 163.02133 2.7818721e-12 12.443296 954.20263 53543.552 -999 0.0415816888112526 0.1054848090584227 -0.03681894067991172
20 2 89616 430.31301 222.5643 4.6814828e-12 11.475352 1133.648 41994.291 -999 0.04915111774673424 0.1194249045546703 -0.04318930197806523
21 2 89616 485.52656 249.91511 7.5311205e-12 13.696276 1276.2225 26293.185 -999 0.0569377488173974 0.1340370088903285 -0.04968943330274751
22 2 89616 526.52678 255.76061 7.8487524e-12 20.045828 1376.1944 17214.799 -999 0.06473055260786441 0.1489160200994799 -0.05617011182105594
23 2 89616 554.85141 248.35663 6.4842755e-12 28.431064 1434.5119 11002.102 -999 0.07230723617827706 0.1636123934608509 -0.06247850198265865
24 2 89616 573.62781 229.72225 6.4390148e-12 36.730175 1458.1229 7217.3428 -999 0.0794716116216491 0.1776350497893426 -0.06848220725007947
25 2 89616 575.00313 200.74089 7.7600945e-12 42.670565 1420.2892 4825.6909 -999 0.08604894645862886 0.1905783128927371 -0.07406389387013419
26 2 89616 571.03663 162.75598 1.068719e-11 45.270445 1367.0624 3367.8698 -999 0.09190848277106936 0.201954321221171 -0.07912039920224656
27 2 89616 590.27076 126.45638 1.4478957e-11 43.670361 1488.8841 66438.242 -999 0.09694528625002814 0.2107234832325741 -0.08359959483756858
28 2 89616 542.02255 83.372176 1.7666561e-11 38.825415 1323.0496 102388.35 -999 0.1013573322801801 0.217852733316694 -0.08747110033905231
29 2 89616 488.08258 56.74343 1.9040049e-11 36.20464 1215.4117 125799.76 -999 0.1049207567739528 0.2231458509520389 -0.09071917334981568
30 2 89616 386.25196 71.537596 1.8370299e-11 43.258017 930.41486 127659.2 -999 0.1079224360169898 0.2270232270342405 -0.093409022034747
31 2 89616 285.72424 111.35189 1.6064793e-11 50.061543 713.14078 161170.53 -999 0.1103318923954861 0.2294208080884799 -0.09559541211369564
32 2 89616 192.49125 108.62324 1.1855273e-11 56.167161 472.02958 124741.89 -999 0.1122101996546492 0.2306404831171337 -0.09733599805714614
33 2 89616 133.91327 142.21913 1.1350193e-11 59.444428 317.60788 131647.47 -999 0.1137012031147606 0.2308128598960236 -0.0987225799297573
34 2 89616 109.85808 106.14215 9.0603304e-12 60.708516 247.6356 105898.35 -999 0.1148639598172661 0.2300476813974679 -0.09982392143385986
35 2 89616 124.8891 127.35074 1.210862e-11 58.947685 275.79832 114180.88 -999 0.1157954649735936 0.2287966331994264 -0.1007111012659833
36 2 89616 124.11447 80.013868 1.1767026e-11 54.003535 279.10125 87316.48 -999 0.1165500134461469 0.2269181730064013 -0.1014433535282562
37 2 89616 152.74443 90.090024 1.3577587e-11 48.226893 360.76068 77477.367 -999 0.1171724230511736 0.224967105890661 -0.1020810907729159
38 2 89616 133.78345 52.304678 1.1715113e-11 39.509977 310.41801 53619.355 -999 0.1177394443278737 0.2225896557360876 -0.1026625767487263
39 2 89616 148.66561 44.688593 1.2686052e-11 35.119196 359.4278 48959.718 -999 0.1182063783972688 0.2203524300375384 -0.1032058680746483
40 2 89616 123.02118 27.843855 1.0473177e-11 30.197006 292.41505 50879.407 -999 0.1186587756855347 0.2179085793970727 -0.1037358536768437
41 2 89616 107.0006 23.371348 9.3394335e-12 27.572435 259.21483 64716.749 -999 0.1190986102710471 0.2154542649784995 -0.1042834572566715
42 2 89616 88.586296 13.403056 6.6000914e-12 24.362874 213.65575 52655.794 -999 0.1195920784526072 0.2130013232294613 -0.1048687916540163
43 2 89616 114.47098 38.457537 6.2057128e-12 22.267521 303.23111 87892.782 -999 0.1200210772492133 0.2108823572318013 -0.1054678784214435
44 2 89616 88.705467 24.479513 6.6966522e-12 19.325067 229.58589 61698.417 -999 0.1204168814296384 0.2085016259099015 -0.1060644709732576
45 2 89616 126.50342 43.882903 5.7557975e-12 18.962101 345.95568 62642.28 -999 0.1207893785286317 0.2064518231097646 -0.106665444230441
46 2 89616 93.877695 31.249127 5.1562177e-12 18.981631 251.55044 74897.816 -999 0.121180067435346 0.2040395873155839 -0.1072953214685584
47 2 89616 90.064727 22.047177 2.4748939e-12 18.777632 242.13207 54119.633 -999 0.1216245278191667 0.2015854594721723 -0.1079790957827366
48 2 89616 94.988161 33.523914 3.8894481e-12 23.022022 258.65484 113946.86 -999 0.1218890005833523 0.1993443665753915 -0.1085751727346251
49 2 89616 106.56694 38.414927 3.7267209e-12 26.369807 298.99378 139112.76 -999 0.1217268092940054 0.1971453926066546 -0.1089178300979848
50 2 89616 97.186141 27.041284 2.8755682e-12 27.366504 263.25003 92448.521 -999 0.121299491704258 0.1947029290140508 -0.1090219727465123
51 2 89616 133.5292 54.641521 2.6518866e-12 31.985852 380.14989 108561.15 -999 0.1207588521502243 0.1925649253873702 -0.1090161008544212
52 2 89616 105.71488 36.428589 3.7859404e-12 32.717603 288.86902 132294.73 -999 0.1205751563263426 0.1898761111779508 -0.1090986480657662
53 2 89616 137.93799 38.713507 2.1859342e-12 35.807682 383.12793 126620.36 -999 0.1204267504011979 0.187457057064528 -0.109187506074774
54 2 89616 122.44168 41.874374 3.2550891e-12 41.922986 337.66155 144484.39 -999 0.1204482217493493 0.184825313659535 -0.1092820280679501
55 2 89616 113.35218 33.080807 2.8611416e-12 45.022759 305.43266 108909.37 -999 0.120539532879721 0.1820330660944269 -0.1093835959781345
56 2 89616 137.06102 41.492564 3.0811012e-12 51.720706 376.26681 115037.94 -999 0.1206390580326428 0.1795912178517829 -0.1094888537638011
57 2 89616 133.76098 32.958083 3.7706297e-12 56.071936 365.14384 139921.19 -999 0.1207776581979687 0.1770621471675422 -0.1096572391010694
58 2 89616 129.79924 31.192198 3.4949657e-12 58.72151 343.90087 109538.64 -999 0.1211581170855206 0.1744074726368677 -0.1099340618793732
59 2 89616 146.23565 37.240811 3.7666956e-12 60.35492 389.8399 134526.99 -999 0.1216465239696522 0.172100957452209 -0.1103209358223737
60 2 89616 146.85859 31.150016 4.2203113e-12 58.738262 382.63144 140881.9 -999 0.1220597695243286 0.1698090585610411 -0.110703543034477
61 2 89616 157.79995 36.707106 4.8578658e-12 56.201055 413.64566 175168.38 -999 0.1219833784947554 0.1677026278870064 -0.1108267821178703
62 2 89616 153.8114 34.710224 6.1379058e-12 53.146709 396.0489 130442.44 -999 0.1206759115952765 0.1655774329373652 -0.1103580085445944
63 2 89616 159.06358 42.50183 6.0010383e-12 52.106204 420.4838 144149.62 -999 0.1181567901221574 0.1636162191850829 -0.1092067948584043
64 2 89616 142.76491 32.790697 5.9413504e-12 50.289672 369.06121 125918.48 -999 0.1144708701456634 0.1613988190324017 -0.1075164361507479
65 2 89616 148.70675 39.309122 4.9227989e-12 52.156588 396.4976 121305.2 -999 0.1102359308431967 0.1593231544619537 -0.1056815821765756
66 2 89616 144.23454 33.00823 3.8053162e-12 52.183872 382.26295 136954.02 -999 0.1063356407091527 0.1570658373789789 -0.1041606363453279
67 2 89616 140.13665 28.874496 3.117452e-12 53.548193 367.15067 130065.55 -999 0.1028519813387848 0.1546094346335837 -0.1029735521953318
68 2 89616 136.7291 33.654707 2.9674448e-12 55.941975 355.40665 136285.05 -999 0.09965204761927508 0.1520743943069687 -0.1020231256769459
69 2 89616 136.81141 25.933705 2.7982185e-12 56.350734 352.75144 164966.1 -999 0.09679738876201498 0.1495951392282761 -0.1012075446655984
70 2 89616 147.76192 32.397307 2.5115453e-12 57.19386 388.54322 140293.33 -999 0.0940354002950099 0.1473192583209695 -0.1005157423506799
71 2 89616 146.68566 29.501649 2.9336598e-12 56.109951 381.12785 134727.03 -999 0.09177170708606798 0.1449281190607447 -0.0999764805425894
72 2 89616 145.22652 28.100255 2.9738972e-12 53.925905 371.39399 95170.941 -999 0.09003856643066807 0.1424554864230531 -0.0996025224894872
73 2 89616 146.74336 27.345812 3.3002789e-12 51.507377 377.33061 94426.783 -999 0.08878912480938486 0.14009715556528 -0.09934577500624989
74 2 89616 145.3428 26.979571 3.6634736e-12 49.821535 374.97295 121115.27 -999 0.08776539689136846 0.1377776008751806 -0.09913461824352876
75 2 89616 138.53123 24.690312 3.8056457e-12 50.214014 354.43228 70316.689 -999 0.086953359929793 0.1354005657772936 -0.09890508720511464
76 2 89616 136.80781 25.920823 4.0033922e-12 53.801233 350.71054 132093.24 -999 0.085927414921024 0.1330980136364406 -0.0985727626707016
77 2 89616 137.93015 28.345353 4.3913342e-12 60.357548 355.14016 84499.958 -999 0.08449353818046383 0.1308945458103349 -0.0980935229866224
78 2 89616 147.67283 34.962839 4.2438332e-12 69.657362 382.97449 201781.51 -999 0.08230919595912489 0.1289027038574385 -0.09748214585451356
79 2 89616 163.32944 44.243487 4.8358497e-12 82.762314 426.31622 136961.25 -999 0.07985924777122429 0.1270527471959054 -0.09681989174981356
80 2 89616 186.72565 56.425301 5.7964435e-12 95.248931 489.18048 174268.44 -999 0.07736446876465015 0.1253794668427758 -0.09617976881248667
81 2 89616 213.35156 67.332391 6.2538179e-12 106.76695 556.56846 154921.26 -999 0.07526299399568297 0.1238263062137381 -0.0956146781851112
82 2 89616 245.3055 79.549368 7.1755887e-12 118.59948 641.79212 145978.19 -999 0.07351731039523497 0.1224174184728617 -0.09510404079771616
83 2 89616 274.20238 87.095913 8.3247257e-12 126.44226 713.25841 143557.56 -999 0.07186645490188917 0.120839444345013 -0.09459341751642836
84 2 89616 302.91531 90.925911 9.4335414e-12 129.55017 786.11683 117451.67 -999 0.0701875332134417 0.1191535470085541 -0.0940615775890426
85 2 89616 326.29106 89.361355 1.0533052e-11 126.51506 842.72471 148560.79 -999 0.06853445871208036 0.1172654483347654 -0.09350225559181176
86 2 89616 342.25335 82.319329 1.0920908e-11 116.72227 879.69792 103746.32 -999 0.06683209694301262 0.1151889605241774 -0.09291291553968266
87 2 89616 345.42829 70.712263 1.1144557e-11 101.02291 881.88261 147233.17 -999 0.06510344388490315 0.1128959311839724 -0.09229379207685458
88 2 89616 333.13634 56.795358 1.1457373e-11 82.283998 844.8566 94801.53 -999 0.06323124832094906 0.1104141222039081 -0.09164073982131413
89 2 89616 306.51326 42.940234 1.2139193e-11 62.029866 772.79073 156041.86 -999 0.06107725387555771 0.1078228291107937 -0.09094781049584395
90 2 89616 267.15485 29.189481 1.2488523e-11 40.146313 668.16583 98835.807 -999 0.05847096630102359 0.1051981045464428 -0.09020942757665688
91 2 89616 216.49439 16.957566 1.1839279e-11 23.119833 534.66721 170073.15 -999 0.05535401960310005 0.1026772460939061 -0.08942448080017616
92 2 89616 158.61521 9.3738278 1.0572729e-11 19.406598 385.11124 114989.31 -999 0.05185537036100191 0.1003934080770318 -0.08859972671608085
93 2 89616 100.74097 7.4437579 8.5802145e-12 19.198926 241.50904 189201.4 -999 0.04826916360286113 0.09849907031271342 -0.08774830056134744
94 2 89616 51.642153 6.4616864 5.8198135e-12 14.772156 123.27104 151422.62 -999 0.04495301996163517 0.09695376392722924 -0.08688549720651025
95 2 89616 22.246875 6.1684167 3.6172206e-12 8.6935884 56.384682 209742.25 -999 0.04206045752823399 0.0957400987109952 -0.08602050368027717
96 2 89616 11.439431 4.4337842 2.3307792e-12 4.9201468 29.59725 198975.08 -999 0.03952573162709442 0.094746263033273 -0.08515492943814283
97 2 89616 8.3844778 5.4275592 3.1268474e-12 3.6746335 23.092615 237053.3 -999 0.03713266913236887 0.09387623853874472 -0.08428922283877113
98 2 89616 6.5995998 3.8835549 2.0911123e-12 2.9184286 16.326021 231695.3 -999 0.03472949637541161 0.09303916440306986 -0.08342029123266614
99 2 89616 6.5010505 5.2814741 3.5117563e-12 3.1433827 16.378739 249874.06 -999 0.03230508096387687 0.0922417814881646 -0.0825555920436737
100 2 89616 6.0741318 3.5354249 1.8853697e-12 2.7116695 13.657859 238034.16 -999 0.02986834138921566 0.091479286795274 -0.08170007223379538
101 2 89616 6.7712781 5.0567141 3.5691286e-12 3.0807521 15.719525 250255.92 -999 0.02745202358817701 0.09077601773662392 -0.08085994081223005
102 2 89616 6.4895851 3.2695617 1.6822681e-12 2.677924 14.193484 236515.92 -999 0.02507403648599169 0.09013215886125868 -0.08003988676030467
103 2 89616 7.4709749 4.8624617 3.4334087e-12 3.1369075 17.27915 253421.13 -999 0.02276306445450383 0.08955889220850495 -0.07924549573412179
104 2 89616 6.9117827 3.0256312 1.4562916e-12 2.69859 15.464233 236717.61 -999 0.0205275400430225 0.08905314830511438 -0.07848030293256537
105 2 89616 8.1253977 4.694354 3.1719856e-12 3.2345542 19.214623 260819.8 -999 0.01839045381297141 0.08861608100289577 -0.07774857764231294
106 2 89616 7.3003143 2.846211 1.2498372e-12 2.719727 16.785926 235744.18 -999 0.01635202843627185 0.08824643397518624 -0.07705238886436964
107 2 89616 8.6242308 4.4954626 2.8498104e-12 3.3938903 20.875176 281750.72 -999 0.01442818648668273 0.08793911986763273 -0.07639382153847839
108 2 89616 7.5573229 2.7186806 1.0528169e-12 2.7401515 17.889473 234790.52 -999 0.01261446686264567 0.08769641183011838 -0.07577414408516339
109 2 89616 8.9752645 4.2224614 2.4959001e-12 3.5996435 22.231339 300982.96 -999 0.01092743836444631 0.08750880828840284 -0.07519587884638676
110 2 89616 7.7384372 2.6067272 8.7736624e-13 2.7508776 18.712122 234108.56 -999 0.009362651422741805 0.08738176611042123 -0.0746594898839136
111 2 89616 9.0121411 3.8239525 2.0932823e-12 3.6235302 22.538519 300828.42 -999 0.007931654924570371 0.08730207238264523 -0.07416732625486114
112 2 89616 7.8751307 3.1551203 7.2348406e-13 2.7621754 19.615468 234056.48 -999 0.00663162216217456 0.08727852263140919 -0.07372050338044976
113 2 89616 9.4105521 5.1069238 1.6937305e-12 3.6244195 24.191331 299172.79 -999 0.005472658217741409 0.08729671595117126 -0.07332033312656945
114 2 89616 8.8404547 5.6875418 5.9748558e-13 2.7716097 22.576729 232551.83 -999 0.004448791651096189 0.08736441228802955 -0.07296714313261685
115 2 89616 10.476584 6.9406178 1.3154767e-12 3.6573278 27.052678 297298.62 -999 0.003569978069504103 0.08746742490934664 -0.07266388401640413
116 2 89616 10.628293 7.3221317 5.046645e-13 2.7743169 27.107141 231478.2 -999 0.002839205045494067 0.08761399364416798 -0.07241236359255417
117 2 89616 12.296941 7.7232291 9.6526561e-13 3.6956047 31.325812 295489.18 -999 0.002258931401927883 0.08779024942014933 -0.07221480076373595
118 2 89616 12.936849 7.4382907 4.3992459e-13 2.7722036 32.446128 230613.89 -999 0.001834673318656036 0.08800294476246574 -0.07207345496297697
119 2 89616 14.376701 7.0005164 6.6242422e-13 3.7396885 35.839628 294270.3 -999 0.00156497992597487 0.08823964010034578 -0.07199107700347217
120 2 89616 14.965263 6.0550287 3.9604616e-13 2.7715883 36.791726 229800.97 -999 0.001458108256954405 0.08850527539782634 -0.07197037261805138
121 2 89616 15.568365 4.8391306 4.4609653e-13 3.7673908 37.96149 293143.65 -999 0.001509005070602956 0.08878937104119725 -0.07201409488226145
122 2 89616 15.17349 3.4146903 3.6192006e-13 2.771467 36.535543 229038.68 -999 0.001727780381506812 0.08909490338812368 -0.07212477190627377
123 2 89616 14.468435 2.5652039 3.8572193e-13 3.7705065 34.702883 292239.51 -999 0.002104829339123798 0.0894138339282903 -0.07230482881355328
124 2 89616 13.028635 2.0620083 3.3334671e-13 2.7702136 31.218263 228311.48 -999 0.002652987724299324 0.08974749474377915 -0.0725573843097256
125 2 89616 11.600782 2.244376 4.6300995e-13 3.7349101 28.082993 291323.35 -999 0.003361508215256122 0.0900898680603881 -0.07288589621824933
126 2 89616 9.9664372 2.1436382 3.0910618e-13 2.7683619 24.522724 227652.05 -999 0.004244954255956168 0.09044087247005758 -0.0732936804548814
127 2 89616 8.7566027 2.3447702 5.513882e-13 3.6848213 22.06038 290865.6 -999 0.005288611746064455 0.09079598909189228 -0.07378305448053
128 2 89616 7.650462 2.0465385 2.7966823e-13 2.7552604 19.762042 226959.39 -999 0.006506683890388192 0.091153878820397 -0.07435660388320577
129 2 89616 7.0243214 2.218665 5.9955017e-13 3.6132606 18.503795 290422.04 -999 0.007884497958142628 0.09151134037588488 -0.07501734320823307
130 2 89616 6.4345333 1.8183183 2.4304033e-13 2.7371557 17.244881 226346.91 -999 0.009434924846788805 0.09186641986770484 -0.0757678598891087
131 2 89616 6.1099562 2.1074069 5.9788885e-13 3.5361461 16.501981 289865.96 -999 0.01114136974221656 0.0922172066100412 -0.07661029412298768
132 2 89616 5.7376114 1.6579603 2.0315093e-13 2.7216872 15.652747 225887.8 -999 0.01301502598652521 0.09256095848404948 -0.07754640120956764
133 2 89616 5.4266584 2.0644165 5.5447398e-13 3.4691528 14.838688 289504.04 -999 0.01504118579037568 0.09289715506301909 -0.07857886398518273
134 2 89616 5.1521236 1.5545681 1.6517615e-13 2.7102486 14.195645 225575.08 -999 0.01723096803635564 0.09322208118633014 -0.07970989495907126
135 2 89616 4.7402163 2.0483502 4.8391913e-13 3.416202 13.065343 289175.39 -999 0.01956530840540273 0.09353705955011678 -0.08093957992730211
136 2 89616 4.5296737 1.4697328 1.349061e-13 2.6980554 12.587014 224986.94 -999 0.02205209428375106 0.09383744388833222 -0.08226866509498439
137 2 89616 3.9957381 2.0337481 4.0230124e-13 3.3802409 11.087181 288990.13 -999 0.02467481639698954 0.09412663042022072 -0.08369774887418377
138 2 89616 3.9171676 1.3905574 1.182432e-13 2.6939925 10.95369 224573.16 -999 0.02743938016529389 0.09439869851160164 -0.0852271634061266
139 2 89616 3.2692902 2.0192441 3.2326589e-13 3.3576647 9.0961026 288946.73 -999 0.03032957015616988 0.09465887386714414 -0.08685650300078782
140 2 89616 3.3169433 1.3173774 1.1974973e-13 2.6952509 9.3051569 224249.37 -999 0.03335042117444895 0.09489993841713956 -0.08858638793444697
141 2 89616 2.6098427 2.0087908 2.5675012e-13 3.3398193 7.2092659 288674.79 -999 0.0364882814807638 0.0951294240421599 -0.09041686276370732
142 2 89616 2.7738475 1.2535285 1.3603984e-13 2.6999091 7.7475893 224079.75 -999 0.03974382673887265 0.09533874273518672 -0.09234660275420972
143 2 89616 2.132528 2.0045686 2.0852942e-13 3.3285951 5.7334273 288531.47 -999 0.04310389868446773 0.09553684532993764 -0.09437346699378264
144 2 89616 2.3559082 1.2090852 1.5960788e-13 2.7027297 6.4685953 223637.13 -999 0.04656652178103498 0.09571416121987644 -0.09649618506111184
145 2 89616 1.990448 2.0076349 1.7963032e-13 3.3199805 5.1298467 288364.08 -999 0.0501214649995375 0.09588143874420632 -0.09871379130094252
146 2 89616 2.1681691 1.1884313 1.8400579e-13 2.7056391 5.7621264 223367.1 -999 0.05376598698665724 0.09602833554823711 -0.1010244667286136
147 2 89616 2.2130861 2.016818 1.6630684e-13 3.3120186 5.6063327 288239.62 -999 0.05749178649927785 0.0961667122450645 -0.1034264399350067
148 2 89616 2.2488891 1.1905679 2.0558063e-13 2.7055705 5.8081919 223089.5 -999 0.06129532266930375 0.09628615164116952 -0.1059184566348937
149 2 89616 2.6414987 2.0287445 1.6189205e-13 3.3028819 6.755573 288130.53 -999 0.0651701630073472 0.09639890483861197 -0.1084981894237281
150 2 89616 2.5194525 1.2090279 2.2202393e-13 2.7010285 6.4577094 222890.34 -999 0.06911041108509834 0.09649459751351612 -0.111163882085788
151 2 89616 3.1132165 2.0389478 1.6018202e-13 3.2902333 8.0754344 288049.93 -999 0.0731118117777444 0.0965855118471374 -0.1139130097175218
152 2 89616 2.8621464 1.2325549 2.3146954e-13 2.6873775 7.3720171 222737.47 -999 0.07716664432435022 0.09666158178284348 -0.1167432046165532
153 2 89616 3.5348107 2.0456578 1.5760308e-13 3.2759466 9.2797171 287996.46 -999 0.08127305769638038 0.0967349231853032 -0.1196520611169845
154 2 89616 3.1940523 1.2572532 2.349277e-13 2.6725998 8.2997141 222666.69 -999 0.08542232254380208 0.09679607788487392 -0.1226370175653306
155 2 89616 3.8574106 2.0454624 1.5127764e-13 3.2573084 10.215029 287977.58 -999 0.08961499948744492 0.09685648187800648 -0.1256958365142357
156 2 89616 3.4517605 1.2723505 2.2934085e-13 2.6478377 9.0347065 222624.4 -999 0.0938413034611446 0.09690739294832934 -0.1288256070923071
157 2 89616 4.0685092 2.0434869 1.41958e-13 3.2388183 10.844446 287963.9 -999 0.09810282998875595 0.0969595296905911 -0.1320237530543348
158 2 89616 3.619684 1.2825699 2.1522825e-13 2.6196247 9.5277625 222655.12 -999 0.1023898053935273 0.09700475715289904 -0.1352872954728752
159 2 89616 4.1560792 2.03877 1.2843103e-13 3.2146351 11.121021 288000.86 -999 0.106704050510992 0.097053029673886 -0.138613129899092
160 2 89616 3.6855758 1.2894825 1.9416812e-13 2.5872892 9.7322511 222751.67 -999 0.1110358752004679 0.097096841349621 -0.1419981830135797
161 2 89616 4.1364988 2.0377398 1.1185359e-13 3.1897878 11.092488 288059.13 -999 0.1153871829249775 0.09714520294705382 -0.1454386608661906
162 2 89616 3.6560409 1.2985068 1.6582968e-13 2.5523642 9.6619561 222888.08 -999 0.1197485333086596 0.09719121951719605 -0.148931276948179
163 2 89616 4.0235127 2.0420059 9.2825111e-14 3.1617663 10.785695 288138.92 -999 0.1241208776340472 0.0972429338408446 -0.1524714314436587
164 2 89616 3.5565802 1.3161735 1.3225414e-13 2.5170437 9.3748665 223058.79 -999 0.1284938560672553 0.09729388879567608 -0.1560547231352224
165 2 89616 3.8536979 2.0565693 7.358943e-14 3.1342107 10.297021 288232.36 -999 0.1328678459329029 0.09735143946323216 -0.159675985866208
166 2 89616 3.4150866 1.3459707 9.5386831e-14 2.4845421 8.9472601 223248.46 -999 0.1372326747628097 0.09740932374367976 -0.1633301535090883
167 2 89616 3.6591911 2.0804189 5.8429392e-14 3.1067283 9.7052434 288328.87 -999 0.1415868337544352 0.0974740630436054 -0.1670107252710033
168 2 89616 3.2939503 1.3878672 5.9369592e-14 2.4544618 8.5155718 223438.37 -999 0.1459145211768649 0.0975383852654546 -0.1707074264623011
169 2 89616 3.4892361 2.113496 5.5417581e-14 3.0820391 9.1347458 288421.06 -999 0.1502290652499362 0.09761126796908448 -0.1744258688394071
170 2 89616 3.1817004 1.4381663 3.519084e-14 2.4282021 8.1048551 223615.39 -999 0.1545119175285058 0.09768542772744332 -0.178152970177716
171 2 89616 3.3548735 2.1530174 6.8454675e-14 3.0612172 8.6457474 288497.04 -999 0.1587632758824702 0.09776686535993422 -0.1818841280455251
172 2 89616 3.1249994 1.4950911 4.6444124e-14 2.4089337 7.8467323 223770.61 -999 0.1629726614050442 0.09784942386406932 -0.1856114556737957
173 2 89616 3.2806072 2.1958334 9.0920448e-14 3.0446362 8.3215929 288536.73 -999 0.1671341367319206 0.0979381309219659 -0.1893263102562758
174 2 89616 3.1478532 1.550407 7.4617334e-14 2.3933055 7.8074607 223892.47 -999 0.1712396048762698 0.09802699829530637 -0.1930219182927329
175 2 89616 3.2868242 2.2388059 1.1638007e-13 3.0326528 8.2246321 288557.76 -999 0.1752845933527317 0.09812117331507324 -0.1966911427159397
176 2 89616 3.2481028 1.6041443 1.0219333e-13 2.3863668 8.0095445 223959.64 -999 0.1792617108222143 0.0982142440349494 -0.2003267201427946
177 2 89616 3.3667776 2.2773162 1.4111599e-13 3.0246663 8.3504776 288512.64 -999 0.1831647255430311 0.09831151640282566 -0.2039209481427773
178 2 89616 3.4115385 1.6484249 1.2495966e-13 2.381686 8.4052462 223968.77 -999 0.1869881248426055 0.09840628519244872 -0.2074672397435964
179 2 89616 3.5091858 2.3110687 1.6303967e-13 3.0222948 8.6739636 288446.98 -999 0.1907262591055365 0.09850377991486708 -0.2109584734210397
180 2 89616 3.6201772 1.6853478 1.4172249e-13 2.3843277 8.9441676 223952.15 -999 0.1943735492851889 0.09859689638517571 -0.2143876812067018
181 2 89616 3.6909562 2.3367737 1.8069635e-13 3.0234783 9.1233247 288328.01 -999 0.1979262832686426 0.0986912094816051 -0.2177494916874056
182 2 89616 3.8370996 1.7089278 1.5212686e-13 2.3874671 9.5222061 223876.66 -999 0.2013808281058769 0.09877960878293672 -0.2210380700166353
183 2 89616 3.8875793 2.3553228 1.9332498e-13 3.0296862 9.6302374 288172.5 -999 0.2047319266885586 0.09886720604920048 -0.2242474800627132
184 2 89616 4.0525379 1.7221831 1.5646781e-13 2.3949882 10.099713 223763.58 -999 0.207977718393874 0.09894718764177984 -0.2273729128859595
185 2 89616 4.0763691 2.3631744 2.0036506e-13 3.0371127 10.125189 287972.19 -999 0.211114755139047 0.09902466317761928 -0.2304098850293102
186 2 89616 4.2543325 1.7233819 1.5525112e-13 2.4034595 10.633202 223608.72 -999 0.2141411999252302 0.09909260717951096 -0.2333536981856976
187 2 89616 4.2448485 2.3626576 2.0181646e-13 3.0479474 10.570867 287738.27 -999 0.217057701381407 0.09915651660018791 -0.2362027749800474
188 2 89616 4.3856877 1.7139484 1.4923512e-13 2.4138968 11.007031 223422.38 -999 0.2198632783049785 0.09920942038160256 -0.2389531238547679
189 2 89616 4.3458751 2.3524452 1.9785748e-13 3.0599792 10.866025 287471.82 -999 0.2225565583796288 0.09925647908792752 -0.24160242802931
190 2 89616 4.4648066 1.6941022 1.3935335e-13 2.424812 11.246247 223208.53 -999 0.2251374681360367 0.09929097294175251 -0.2441476261499512
191 2 89616 4.4044238 2.3337767 1.8906538e-13 3.0737243 11.049678 287180.92 -999 0.2276056072330558 0.09931814142409844 -0.2465872458825643
192 2 89616 4.4919598 1.6647483 1.2651262e-13 2.4364398 11.346408 222975.14 -999 0.2299647293794959 0.09933129771504136 -0.2489207888757104
193 2 89616 4.417861 2.3067914 1.7578555e-13 3.0883025 11.111363 286870.49 -999 0.2322138132527982 0.09933579227268348 -0.2511465411159962
194 2 89616 4.4702838 1.6272391 1.1141067e-13 2.4480905 11.311433 222727.86 -999 0.2343568540959385 0.09932524855968626 -0.2532644838341109
195 2 89616 4.3725901 2.2729671 1.5899638e-13 3.1035042 11.020968 286547.72 -999 0.2363943043131521 0.09930462868784752 -0.2552739711799827
196 2 89616 4.3916741 1.5831089 9.5329112e-14 2.4592955 11.1256 222473.73 -999 0.2383293570754775 0.09926795476512106 -0.2571748080435517
197 2 89616 4.2798178 2.2335488 1.3949826e-13 3.1185665 10.801222 286218.48 -999 0.2401628958816402 0.0992200195399894 -0.2589668640489533
198 2 89616 4.2797708 1.5345729 7.8971522e-14 2.4695286 10.842129 222218.57 -999 0.2418983072398445 0.09915496964627583 -0.2606502166516126
199 2 89616 4.1641257 2.1902146 1.1816128e-13 3.1333216 10.510846 285889.13 -999 0.2435364844539536 0.09907760322814305 -0.262225153738268
200 2 89616 4.1226972 1.4830566 6.3207182e-14 2.4785096 10.440258 221967.79 -999 0.2450819476534406 0.09898261850761111 -0.2636928711827043
201 2 89616 3.9633167 1.7666202 4.1291361e-12 3.5014212 10.046623 285570.67 -999 0.2464894129891728 0.09886552517580648 -0.2650017103541246
202 2 89616 3.8698436 1.3178349 2.5318075e-12 2.6690092 9.6312283 222049.59 -999 0.2476559896042894 0.09873078275888832 -0.2660812677221758
203 2 89616 4.5940483 2.2636229 2.5954405e-12 3.4465053 11.502202 285946.85 -999 0.2488357284163716 0.0985605974619073 -0.2671388532475999
204 2 89616 5.0645604 2.072044 1.1139988e-12 2.7165075 12.346767 221995.96 -999 0.2500641711500163 0.09833075823776996 -0.2682156418065123
205 2 89616 7.8595117 3.3590859 1.4955319e-12 3.5417458 20.248616 285693.78 -999 0.2512569443733808 0.09805181493245138 -0.269226685041352